 TITLE = 'Scalar'
 VARIABLES = 'X', 'Y' , 'Scalar'   
ZONE T = "Scalar zone", I = 50 , J = 50 , F = POINT 
0.000000e+00  0.000000e+00  1.000000e+00 
 2.040816e-02  0.000000e+00  1.020407e+00 
 4.081633e-02  0.000000e+00  1.040805e+00 
 6.122449e-02  0.000000e+00  1.061186e+00 
 8.163265e-02  0.000000e+00  1.081542e+00 
 1.020408e-01  0.000000e+00  1.101864e+00 
 1.224490e-01  0.000000e+00  1.122143e+00 
 1.428571e-01  0.000000e+00  1.142372e+00 
 1.632653e-01  0.000000e+00  1.162541e+00 
 1.836735e-01  0.000000e+00  1.182642e+00 
 2.040816e-01  0.000000e+00  1.202668e+00 
 2.244898e-01  0.000000e+00  1.222609e+00 
 2.448980e-01  0.000000e+00  1.242457e+00 
 2.653061e-01  0.000000e+00  1.262205e+00 
 2.857143e-01  0.000000e+00  1.281843e+00 
 3.061224e-01  0.000000e+00  1.301364e+00 
 3.265306e-01  0.000000e+00  1.320759e+00 
 3.469388e-01  0.000000e+00  1.340021e+00 
 3.673469e-01  0.000000e+00  1.359141e+00 
 3.877551e-01  0.000000e+00  1.378111e+00 
 4.081633e-01  0.000000e+00  1.396924e+00 
 4.285714e-01  0.000000e+00  1.415572e+00 
 4.489796e-01  0.000000e+00  1.434046e+00 
 4.693878e-01  0.000000e+00  1.452340e+00 
 4.897959e-01  0.000000e+00  1.470446e+00 
 5.102041e-01  0.000000e+00  1.488355e+00 
 5.306122e-01  0.000000e+00  1.506061e+00 
 5.510204e-01  0.000000e+00  1.523557e+00 
 5.714286e-01  0.000000e+00  1.540834e+00 
 5.918367e-01  0.000000e+00  1.557886e+00 
 6.122449e-01  0.000000e+00  1.574706e+00 
 6.326531e-01  0.000000e+00  1.591286e+00 
 6.530612e-01  0.000000e+00  1.607621e+00 
 6.734694e-01  0.000000e+00  1.623702e+00 
 6.938776e-01  0.000000e+00  1.639523e+00 
 7.142857e-01  0.000000e+00  1.655078e+00 
 7.346939e-01  0.000000e+00  1.670360e+00 
 7.551020e-01  0.000000e+00  1.685363e+00 
 7.755102e-01  0.000000e+00  1.700080e+00 
 7.959184e-01  0.000000e+00  1.714506e+00 
 8.163265e-01  0.000000e+00  1.728635e+00 
 8.367347e-01  0.000000e+00  1.742460e+00 
 8.571429e-01  0.000000e+00  1.755975e+00 
 8.775510e-01  0.000000e+00  1.769176e+00 
 8.979592e-01  0.000000e+00  1.782057e+00 
 9.183673e-01  0.000000e+00  1.794611e+00 
 9.387755e-01  0.000000e+00  1.806835e+00 
 9.591837e-01  0.000000e+00  1.818723e+00 
 9.795918e-01  0.000000e+00  1.830270e+00 
 1.000000e+00  0.000000e+00  1.841471e+00 
 0.000000e+00  2.040816e-02  9.997918e-01 
 2.040816e-02  2.040816e-02  1.020199e+00 
 4.081633e-02  2.040816e-02  1.040597e+00 
 6.122449e-02  2.040816e-02  1.060978e+00 
 8.163265e-02  2.040816e-02  1.081334e+00 
 1.020408e-01  2.040816e-02  1.101656e+00 
 1.224490e-01  2.040816e-02  1.121935e+00 
 1.428571e-01  2.040816e-02  1.142163e+00 
 1.632653e-01  2.040816e-02  1.162333e+00 
 1.836735e-01  2.040816e-02  1.182434e+00 
 2.040816e-01  2.040816e-02  1.202460e+00 
 2.244898e-01  2.040816e-02  1.222401e+00 
 2.448980e-01  2.040816e-02  1.242249e+00 
 2.653061e-01  2.040816e-02  1.261996e+00 
 2.857143e-01  2.040816e-02  1.281635e+00 
 3.061224e-01  2.040816e-02  1.301155e+00 
 3.265306e-01  2.040816e-02  1.320551e+00 
 3.469388e-01  2.040816e-02  1.339812e+00 
 3.673469e-01  2.040816e-02  1.358932e+00 
 3.877551e-01  2.040816e-02  1.377903e+00 
 4.081633e-01  2.040816e-02  1.396716e+00 
 4.285714e-01  2.040816e-02  1.415364e+00 
 4.489796e-01  2.040816e-02  1.433838e+00 
 4.693878e-01  2.040816e-02  1.452132e+00 
 4.897959e-01  2.040816e-02  1.470238e+00 
 5.102041e-01  2.040816e-02  1.488147e+00 
 5.306122e-01  2.040816e-02  1.505853e+00 
 5.510204e-01  2.040816e-02  1.523349e+00 
 5.714286e-01  2.040816e-02  1.540626e+00 
 5.918367e-01  2.040816e-02  1.557678e+00 
 6.122449e-01  2.040816e-02  1.574498e+00 
 6.326531e-01  2.040816e-02  1.591078e+00 
 6.530612e-01  2.040816e-02  1.607412e+00 
 6.734694e-01  2.040816e-02  1.623493e+00 
 6.938776e-01  2.040816e-02  1.639315e+00 
 7.142857e-01  2.040816e-02  1.654870e+00 
 7.346939e-01  2.040816e-02  1.670152e+00 
 7.551020e-01  2.040816e-02  1.685155e+00 
 7.755102e-01  2.040816e-02  1.699872e+00 
 7.959184e-01  2.040816e-02  1.714298e+00 
 8.163265e-01  2.040816e-02  1.728427e+00 
 8.367347e-01  2.040816e-02  1.742251e+00 
 8.571429e-01  2.040816e-02  1.755767e+00 
 8.775510e-01  2.040816e-02  1.768968e+00 
 8.979592e-01  2.040816e-02  1.781848e+00 
 9.183673e-01  2.040816e-02  1.794403e+00 
 9.387755e-01  2.040816e-02  1.806627e+00 
 9.591837e-01  2.040816e-02  1.818515e+00 
 9.795918e-01  2.040816e-02  1.830062e+00 
 1.000000e+00  2.040816e-02  1.841263e+00 
 0.000000e+00  4.081633e-02  9.991671e-01 
 2.040816e-02  4.081633e-02  1.019574e+00 
 4.081633e-02  4.081633e-02  1.039972e+00 
 6.122449e-02  4.081633e-02  1.060353e+00 
 8.163265e-02  4.081633e-02  1.080709e+00 
 1.020408e-01  4.081633e-02  1.101031e+00 
 1.224490e-01  4.081633e-02  1.121310e+00 
 1.428571e-01  4.081633e-02  1.141539e+00 
 1.632653e-01  4.081633e-02  1.161708e+00 
 1.836735e-01  4.081633e-02  1.181810e+00 
 2.040816e-01  4.081633e-02  1.201835e+00 
 2.244898e-01  4.081633e-02  1.221776e+00 
 2.448980e-01  4.081633e-02  1.241624e+00 
 2.653061e-01  4.081633e-02  1.261372e+00 
 2.857143e-01  4.081633e-02  1.281010e+00 
 3.061224e-01  4.081633e-02  1.300531e+00 
 3.265306e-01  4.081633e-02  1.319926e+00 
 3.469388e-01  4.081633e-02  1.339188e+00 
 3.673469e-01  4.081633e-02  1.358308e+00 
 3.877551e-01  4.081633e-02  1.377278e+00 
 4.081633e-01  4.081633e-02  1.396091e+00 
 4.285714e-01  4.081633e-02  1.414739e+00 
 4.489796e-01  4.081633e-02  1.433214e+00 
 4.693878e-01  4.081633e-02  1.451507e+00 
 4.897959e-01  4.081633e-02  1.469613e+00 
 5.102041e-01  4.081633e-02  1.487522e+00 
 5.306122e-01  4.081633e-02  1.505229e+00 
 5.510204e-01  4.081633e-02  1.522724e+00 
 5.714286e-01  4.081633e-02  1.540001e+00 
 5.918367e-01  4.081633e-02  1.557053e+00 
 6.122449e-01  4.081633e-02  1.573873e+00 
 6.326531e-01  4.081633e-02  1.590454e+00 
 6.530612e-01  4.081633e-02  1.606788e+00 
 6.734694e-01  4.081633e-02  1.622869e+00 
 6.938776e-01  4.081633e-02  1.638690e+00 
 7.142857e-01  4.081633e-02  1.654245e+00 
 7.346939e-01  4.081633e-02  1.669527e+00 
 7.551020e-01  4.081633e-02  1.684530e+00 
 7.755102e-01  4.081633e-02  1.699248e+00 
 7.959184e-01  4.081633e-02  1.713674e+00 
 8.163265e-01  4.081633e-02  1.727802e+00 
 8.367347e-01  4.081633e-02  1.741627e+00 
 8.571429e-01  4.081633e-02  1.755142e+00 
 8.775510e-01  4.081633e-02  1.768343e+00 
 8.979592e-01  4.081633e-02  1.781224e+00 
 9.183673e-01  4.081633e-02  1.793779e+00 
 9.387755e-01  4.081633e-02  1.806002e+00 
 9.591837e-01  4.081633e-02  1.817890e+00 
 9.795918e-01  4.081633e-02  1.829437e+00 
 1.000000e+00  4.081633e-02  1.840638e+00 
 0.000000e+00  6.122449e-02  9.981264e-01 
 2.040816e-02  6.122449e-02  1.018533e+00 
 4.081633e-02  6.122449e-02  1.038931e+00 
 6.122449e-02  6.122449e-02  1.059313e+00 
 8.163265e-02  6.122449e-02  1.079668e+00 
 1.020408e-01  6.122449e-02  1.099990e+00 
 1.224490e-01  6.122449e-02  1.120270e+00 
 1.428571e-01  6.122449e-02  1.140498e+00 
 1.632653e-01  6.122449e-02  1.160667e+00 
 1.836735e-01  6.122449e-02  1.180769e+00 
 2.040816e-01  6.122449e-02  1.200794e+00 
 2.244898e-01  6.122449e-02  1.220735e+00 
 2.448980e-01  6.122449e-02  1.240584e+00 
 2.653061e-01  6.122449e-02  1.260331e+00 
 2.857143e-01  6.122449e-02  1.279969e+00 
 3.061224e-01  6.122449e-02  1.299490e+00 
 3.265306e-01  6.122449e-02  1.318885e+00 
 3.469388e-01  6.122449e-02  1.338147e+00 
 3.673469e-01  6.122449e-02  1.357267e+00 
 3.877551e-01  6.122449e-02  1.376237e+00 
 4.081633e-01  6.122449e-02  1.395051e+00 
 4.285714e-01  6.122449e-02  1.413698e+00 
 4.489796e-01  6.122449e-02  1.432173e+00 
 4.693878e-01  6.122449e-02  1.450467e+00 
 4.897959e-01  6.122449e-02  1.468572e+00 
 5.102041e-01  6.122449e-02  1.486482e+00 
 5.306122e-01  6.122449e-02  1.504188e+00 
 5.510204e-01  6.122449e-02  1.521683e+00 
 5.714286e-01  6.122449e-02  1.538961e+00 
 5.918367e-01  6.122449e-02  1.556013e+00 
 6.122449e-01  6.122449e-02  1.572832e+00 
 6.326531e-01  6.122449e-02  1.589413e+00 
 6.530612e-01  6.122449e-02  1.605747e+00 
 6.734694e-01  6.122449e-02  1.621828e+00 
 6.938776e-01  6.122449e-02  1.637649e+00 
 7.142857e-01  6.122449e-02  1.653204e+00 
 7.346939e-01  6.122449e-02  1.668486e+00 
 7.551020e-01  6.122449e-02  1.683489e+00 
 7.755102e-01  6.122449e-02  1.698207e+00 
 7.959184e-01  6.122449e-02  1.712633e+00 
 8.163265e-01  6.122449e-02  1.726761e+00 
 8.367347e-01  6.122449e-02  1.740586e+00 
 8.571429e-01  6.122449e-02  1.754102e+00 
 8.775510e-01  6.122449e-02  1.767303e+00 
 8.979592e-01  6.122449e-02  1.780183e+00 
 9.183673e-01  6.122449e-02  1.792738e+00 
 9.387755e-01  6.122449e-02  1.804962e+00 
 9.591837e-01  6.122449e-02  1.816849e+00 
 9.795918e-01  6.122449e-02  1.828396e+00 
 1.000000e+00  6.122449e-02  1.839597e+00 
 0.000000e+00  8.163265e-02  9.966699e-01 
 2.040816e-02  8.163265e-02  1.017077e+00 
 4.081633e-02  8.163265e-02  1.037475e+00 
 6.122449e-02  8.163265e-02  1.057856e+00 
 8.163265e-02  8.163265e-02  1.078212e+00 
 1.020408e-01  8.163265e-02  1.098534e+00 
 1.224490e-01  8.163265e-02  1.118813e+00 
 1.428571e-01  8.163265e-02  1.139042e+00 
 1.632653e-01  8.163265e-02  1.159211e+00 
 1.836735e-01  8.163265e-02  1.179312e+00 
 2.040816e-01  8.163265e-02  1.199338e+00 
 2.244898e-01  8.163265e-02  1.219279e+00 
 2.448980e-01  8.163265e-02  1.239127e+00 
 2.653061e-01  8.163265e-02  1.258875e+00 
 2.857143e-01  8.163265e-02  1.278513e+00 
 3.061224e-01  8.163265e-02  1.298034e+00 
 3.265306e-01  8.163265e-02  1.317429e+00 
 3.469388e-01  8.163265e-02  1.336690e+00 
 3.673469e-01  8.163265e-02  1.355811e+00 
 3.877551e-01  8.163265e-02  1.374781e+00 
 4.081633e-01  8.163265e-02  1.393594e+00 
 4.285714e-01  8.163265e-02  1.412242e+00 
 4.489796e-01  8.163265e-02  1.430716e+00 
 4.693878e-01  8.163265e-02  1.449010e+00 
 4.897959e-01  8.163265e-02  1.467116e+00 
 5.102041e-01  8.163265e-02  1.485025e+00 
 5.306122e-01  8.163265e-02  1.502731e+00 
 5.510204e-01  8.163265e-02  1.520227e+00 
 5.714286e-01  8.163265e-02  1.537504e+00 
 5.918367e-01  8.163265e-02  1.554556e+00 
 6.122449e-01  8.163265e-02  1.571376e+00 
 6.326531e-01  8.163265e-02  1.587956e+00 
 6.530612e-01  8.163265e-02  1.604290e+00 
 6.734694e-01  8.163265e-02  1.620372e+00 
 6.938776e-01  8.163265e-02  1.636193e+00 
 7.142857e-01  8.163265e-02  1.651748e+00 
 7.346939e-01  8.163265e-02  1.667030e+00 
 7.551020e-01  8.163265e-02  1.682033e+00 
 7.755102e-01  8.163265e-02  1.696750e+00 
 7.959184e-01  8.163265e-02  1.711176e+00 
 8.163265e-01  8.163265e-02  1.725305e+00 
 8.367347e-01  8.163265e-02  1.739130e+00 
 8.571429e-01  8.163265e-02  1.752645e+00 
 8.775510e-01  8.163265e-02  1.765846e+00 
 8.979592e-01  8.163265e-02  1.778727e+00 
 9.183673e-01  8.163265e-02  1.791281e+00 
 9.387755e-01  8.163265e-02  1.803505e+00 
 9.591837e-01  8.163265e-02  1.815393e+00 
 9.795918e-01  8.163265e-02  1.826940e+00 
 1.000000e+00  8.163265e-02  1.838141e+00 
 0.000000e+00  1.020408e-01  9.947984e-01 
 2.040816e-02  1.020408e-01  1.015205e+00 
 4.081633e-02  1.020408e-01  1.035603e+00 
 6.122449e-02  1.020408e-01  1.055985e+00 
 8.163265e-02  1.020408e-01  1.076340e+00 
 1.020408e-01  1.020408e-01  1.096662e+00 
 1.224490e-01  1.020408e-01  1.116942e+00 
 1.428571e-01  1.020408e-01  1.137170e+00 
 1.632653e-01  1.020408e-01  1.157339e+00 
 1.836735e-01  1.020408e-01  1.177441e+00 
 2.040816e-01  1.020408e-01  1.197466e+00 
 2.244898e-01  1.020408e-01  1.217407e+00 
 2.448980e-01  1.020408e-01  1.237256e+00 
 2.653061e-01  1.020408e-01  1.257003e+00 
 2.857143e-01  1.020408e-01  1.276641e+00 
 3.061224e-01  1.020408e-01  1.296162e+00 
 3.265306e-01  1.020408e-01  1.315557e+00 
 3.469388e-01  1.020408e-01  1.334819e+00 
 3.673469e-01  1.020408e-01  1.353939e+00 
 3.877551e-01  1.020408e-01  1.372909e+00 
 4.081633e-01  1.020408e-01  1.391723e+00 
 4.285714e-01  1.020408e-01  1.410370e+00 
 4.489796e-01  1.020408e-01  1.428845e+00 
 4.693878e-01  1.020408e-01  1.447139e+00 
 4.897959e-01  1.020408e-01  1.465244e+00 
 5.102041e-01  1.020408e-01  1.483154e+00 
 5.306122e-01  1.020408e-01  1.500860e+00 
 5.510204e-01  1.020408e-01  1.518355e+00 
 5.714286e-01  1.020408e-01  1.535633e+00 
 5.918367e-01  1.020408e-01  1.552685e+00 
 6.122449e-01  1.020408e-01  1.569504e+00 
 6.326531e-01  1.020408e-01  1.586085e+00 
 6.530612e-01  1.020408e-01  1.602419e+00 
 6.734694e-01  1.020408e-01  1.618500e+00 
 6.938776e-01  1.020408e-01  1.634321e+00 
 7.142857e-01  1.020408e-01  1.649876e+00 
 7.346939e-01  1.020408e-01  1.665158e+00 
 7.551020e-01  1.020408e-01  1.680161e+00 
 7.755102e-01  1.020408e-01  1.694879e+00 
 7.959184e-01  1.020408e-01  1.709305e+00 
 8.163265e-01  1.020408e-01  1.723433e+00 
 8.367347e-01  1.020408e-01  1.737258e+00 
 8.571429e-01  1.020408e-01  1.750774e+00 
 8.775510e-01  1.020408e-01  1.763975e+00 
 8.979592e-01  1.020408e-01  1.776855e+00 
 9.183673e-01  1.020408e-01  1.789410e+00 
 9.387755e-01  1.020408e-01  1.801634e+00 
 9.591837e-01  1.020408e-01  1.813521e+00 
 9.795918e-01  1.020408e-01  1.825068e+00 
 1.000000e+00  1.020408e-01  1.836269e+00 
 0.000000e+00  1.224490e-01  9.925125e-01 
 2.040816e-02  1.224490e-01  1.012919e+00 
 4.081633e-02  1.224490e-01  1.033317e+00 
 6.122449e-02  1.224490e-01  1.053699e+00 
 8.163265e-02  1.224490e-01  1.074055e+00 
 1.020408e-01  1.224490e-01  1.094376e+00 
 1.224490e-01  1.224490e-01  1.114656e+00 
 1.428571e-01  1.224490e-01  1.134884e+00 
 1.632653e-01  1.224490e-01  1.155053e+00 
 1.836735e-01  1.224490e-01  1.175155e+00 
 2.040816e-01  1.224490e-01  1.195180e+00 
 2.244898e-01  1.224490e-01  1.215121e+00 
 2.448980e-01  1.224490e-01  1.234970e+00 
 2.653061e-01  1.224490e-01  1.254717e+00 
 2.857143e-01  1.224490e-01  1.274355e+00 
 3.061224e-01  1.224490e-01  1.293876e+00 
 3.265306e-01  1.224490e-01  1.313271e+00 
 3.469388e-01  1.224490e-01  1.332533e+00 
 3.673469e-01  1.224490e-01  1.351653e+00 
 3.877551e-01  1.224490e-01  1.370624e+00 
 4.081633e-01  1.224490e-01  1.389437e+00 
 4.285714e-01  1.224490e-01  1.408084e+00 
 4.489796e-01  1.224490e-01  1.426559e+00 
 4.693878e-01  1.224490e-01  1.444853e+00 
 4.897959e-01  1.224490e-01  1.462958e+00 
 5.102041e-01  1.224490e-01  1.480868e+00 
 5.306122e-01  1.224490e-01  1.498574e+00 
 5.510204e-01  1.224490e-01  1.516069e+00 
 5.714286e-01  1.224490e-01  1.533347e+00 
 5.918367e-01  1.224490e-01  1.550399e+00 
 6.122449e-01  1.224490e-01  1.567219e+00 
 6.326531e-01  1.224490e-01  1.583799e+00 
 6.530612e-01  1.224490e-01  1.600133e+00 
 6.734694e-01  1.224490e-01  1.616214e+00 
 6.938776e-01  1.224490e-01  1.632035e+00 
 7.142857e-01  1.224490e-01  1.647590e+00 
 7.346939e-01  1.224490e-01  1.662873e+00 
 7.551020e-01  1.224490e-01  1.677875e+00 
 7.755102e-01  1.224490e-01  1.692593e+00 
 7.959184e-01  1.224490e-01  1.707019e+00 
 8.163265e-01  1.224490e-01  1.721147e+00 
 8.367347e-01  1.224490e-01  1.734972e+00 
 8.571429e-01  1.224490e-01  1.748488e+00 
 8.775510e-01  1.224490e-01  1.761689e+00 
 8.979592e-01  1.224490e-01  1.774569e+00 
 9.183673e-01  1.224490e-01  1.787124e+00 
 9.387755e-01  1.224490e-01  1.799348e+00 
 9.591837e-01  1.224490e-01  1.811236e+00 
 9.795918e-01  1.224490e-01  1.822782e+00 
 1.000000e+00  1.224490e-01  1.833983e+00 
 0.000000e+00  1.428571e-01  9.898133e-01 
 2.040816e-02  1.428571e-01  1.010220e+00 
 4.081633e-02  1.428571e-01  1.030618e+00 
 6.122449e-02  1.428571e-01  1.051000e+00 
 8.163265e-02  1.428571e-01  1.071355e+00 
 1.020408e-01  1.428571e-01  1.091677e+00 
 1.224490e-01  1.428571e-01  1.111956e+00 
 1.428571e-01  1.428571e-01  1.132185e+00 
 1.632653e-01  1.428571e-01  1.152354e+00 
 1.836735e-01  1.428571e-01  1.172456e+00 
 2.040816e-01  1.428571e-01  1.192481e+00 
 2.244898e-01  1.428571e-01  1.212422e+00 
 2.448980e-01  1.428571e-01  1.232271e+00 
 2.653061e-01  1.428571e-01  1.252018e+00 
 2.857143e-01  1.428571e-01  1.271656e+00 
 3.061224e-01  1.428571e-01  1.291177e+00 
 3.265306e-01  1.428571e-01  1.310572e+00 
 3.469388e-01  1.428571e-01  1.329834e+00 
 3.673469e-01  1.428571e-01  1.348954e+00 
 3.877551e-01  1.428571e-01  1.367924e+00 
 4.081633e-01  1.428571e-01  1.386737e+00 
 4.285714e-01  1.428571e-01  1.405385e+00 
 4.489796e-01  1.428571e-01  1.423860e+00 
 4.693878e-01  1.428571e-01  1.442154e+00 
 4.897959e-01  1.428571e-01  1.460259e+00 
 5.102041e-01  1.428571e-01  1.478169e+00 
 5.306122e-01  1.428571e-01  1.495875e+00 
 5.510204e-01  1.428571e-01  1.513370e+00 
 5.714286e-01  1.428571e-01  1.530647e+00 
 5.918367e-01  1.428571e-01  1.547700e+00 
 6.122449e-01  1.428571e-01  1.564519e+00 
 6.326531e-01  1.428571e-01  1.581100e+00 
 6.530612e-01  1.428571e-01  1.597434e+00 
 6.734694e-01  1.428571e-01  1.613515e+00 
 6.938776e-01  1.428571e-01  1.629336e+00 
 7.142857e-01  1.428571e-01  1.644891e+00 
 7.346939e-01  1.428571e-01  1.660173e+00 
 7.551020e-01  1.428571e-01  1.675176e+00 
 7.755102e-01  1.428571e-01  1.689894e+00 
 7.959184e-01  1.428571e-01  1.704320e+00 
 8.163265e-01  1.428571e-01  1.718448e+00 
 8.367347e-01  1.428571e-01  1.732273e+00 
 8.571429e-01  1.428571e-01  1.745789e+00 
 8.775510e-01  1.428571e-01  1.758989e+00 
 8.979592e-01  1.428571e-01  1.771870e+00 
 9.183673e-01  1.428571e-01  1.784425e+00 
 9.387755e-01  1.428571e-01  1.796649e+00 
 9.591837e-01  1.428571e-01  1.808536e+00 
 9.795918e-01  1.428571e-01  1.820083e+00 
 1.000000e+00  1.428571e-01  1.831284e+00 
 0.000000e+00  1.632653e-01  9.867018e-01 
 2.040816e-02  1.632653e-01  1.007109e+00 
 4.081633e-02  1.632653e-01  1.027507e+00 
 6.122449e-02  1.632653e-01  1.047888e+00 
 8.163265e-02  1.632653e-01  1.068244e+00 
 1.020408e-01  1.632653e-01  1.088566e+00 
 1.224490e-01  1.632653e-01  1.108845e+00 
 1.428571e-01  1.632653e-01  1.129074e+00 
 1.632653e-01  1.632653e-01  1.149243e+00 
 1.836735e-01  1.632653e-01  1.169344e+00 
 2.040816e-01  1.632653e-01  1.189370e+00 
 2.244898e-01  1.632653e-01  1.209311e+00 
 2.448980e-01  1.632653e-01  1.229159e+00 
 2.653061e-01  1.632653e-01  1.248906e+00 
 2.857143e-01  1.632653e-01  1.268545e+00 
 3.061224e-01  1.632653e-01  1.288065e+00 
 3.265306e-01  1.632653e-01  1.307461e+00 
 3.469388e-01  1.632653e-01  1.326722e+00 
 3.673469e-01  1.632653e-01  1.345842e+00 
 3.877551e-01  1.632653e-01  1.364813e+00 
 4.081633e-01  1.632653e-01  1.383626e+00 
 4.285714e-01  1.632653e-01  1.402274e+00 
 4.489796e-01  1.632653e-01  1.420748e+00 
 4.693878e-01  1.632653e-01  1.439042e+00 
 4.897959e-01  1.632653e-01  1.457148e+00 
 5.102041e-01  1.632653e-01  1.475057e+00 
 5.306122e-01  1.632653e-01  1.492763e+00 
 5.510204e-01  1.632653e-01  1.510259e+00 
 5.714286e-01  1.632653e-01  1.527536e+00 
 5.918367e-01  1.632653e-01  1.544588e+00 
 6.122449e-01  1.632653e-01  1.561408e+00 
 6.326531e-01  1.632653e-01  1.577988e+00 
 6.530612e-01  1.632653e-01  1.594322e+00 
 6.734694e-01  1.632653e-01  1.610403e+00 
 6.938776e-01  1.632653e-01  1.626225e+00 
 7.142857e-01  1.632653e-01  1.641780e+00 
 7.346939e-01  1.632653e-01  1.657062e+00 
 7.551020e-01  1.632653e-01  1.672065e+00 
 7.755102e-01  1.632653e-01  1.686782e+00 
 7.959184e-01  1.632653e-01  1.701208e+00 
 8.163265e-01  1.632653e-01  1.715337e+00 
 8.367347e-01  1.632653e-01  1.729161e+00 
 8.571429e-01  1.632653e-01  1.742677e+00 
 8.775510e-01  1.632653e-01  1.755878e+00 
 8.979592e-01  1.632653e-01  1.768758e+00 
 9.183673e-01  1.632653e-01  1.781313e+00 
 9.387755e-01  1.632653e-01  1.793537e+00 
 9.591837e-01  1.632653e-01  1.805425e+00 
 9.795918e-01  1.632653e-01  1.816972e+00 
 1.000000e+00  1.632653e-01  1.828173e+00 
 0.000000e+00  1.836735e-01  9.831794e-01 
 2.040816e-02  1.836735e-01  1.003586e+00 
 4.081633e-02  1.836735e-01  1.023984e+00 
 6.122449e-02  1.836735e-01  1.044366e+00 
 8.163265e-02  1.836735e-01  1.064721e+00 
 1.020408e-01  1.836735e-01  1.085043e+00 
 1.224490e-01  1.836735e-01  1.105323e+00 
 1.428571e-01  1.836735e-01  1.125551e+00 
 1.632653e-01  1.836735e-01  1.145720e+00 
 1.836735e-01  1.836735e-01  1.165822e+00 
 2.040816e-01  1.836735e-01  1.185847e+00 
 2.244898e-01  1.836735e-01  1.205788e+00 
 2.448980e-01  1.836735e-01  1.225637e+00 
 2.653061e-01  1.836735e-01  1.245384e+00 
 2.857143e-01  1.836735e-01  1.265022e+00 
 3.061224e-01  1.836735e-01  1.284543e+00 
 3.265306e-01  1.836735e-01  1.303938e+00 
 3.469388e-01  1.836735e-01  1.323200e+00 
 3.673469e-01  1.836735e-01  1.342320e+00 
 3.877551e-01  1.836735e-01  1.361291e+00 
 4.081633e-01  1.836735e-01  1.380104e+00 
 4.285714e-01  1.836735e-01  1.398751e+00 
 4.489796e-01  1.836735e-01  1.417226e+00 
 4.693878e-01  1.836735e-01  1.435520e+00 
 4.897959e-01  1.836735e-01  1.453625e+00 
 5.102041e-01  1.836735e-01  1.471535e+00 
 5.306122e-01  1.836735e-01  1.489241e+00 
 5.510204e-01  1.836735e-01  1.506736e+00 
 5.714286e-01  1.836735e-01  1.524014e+00 
 5.918367e-01  1.836735e-01  1.541066e+00 
 6.122449e-01  1.836735e-01  1.557885e+00 
 6.326531e-01  1.836735e-01  1.574466e+00 
 6.530612e-01  1.836735e-01  1.590800e+00 
 6.734694e-01  1.836735e-01  1.606881e+00 
 6.938776e-01  1.836735e-01  1.622702e+00 
 7.142857e-01  1.836735e-01  1.638257e+00 
 7.346939e-01  1.836735e-01  1.653539e+00 
 7.551020e-01  1.836735e-01  1.668542e+00 
 7.755102e-01  1.836735e-01  1.683260e+00 
 7.959184e-01  1.836735e-01  1.697686e+00 
 8.163265e-01  1.836735e-01  1.711814e+00 
 8.367347e-01  1.836735e-01  1.725639e+00 
 8.571429e-01  1.836735e-01  1.739155e+00 
 8.775510e-01  1.836735e-01  1.752356e+00 
 8.979592e-01  1.836735e-01  1.765236e+00 
 9.183673e-01  1.836735e-01  1.777791e+00 
 9.387755e-01  1.836735e-01  1.790015e+00 
 9.591837e-01  1.836735e-01  1.801903e+00 
 9.795918e-01  1.836735e-01  1.813449e+00 
 1.000000e+00  1.836735e-01  1.824650e+00 
 0.000000e+00  2.040816e-01  9.792475e-01 
 2.040816e-02  2.040816e-01  9.996543e-01 
 4.081633e-02  2.040816e-01  1.020053e+00 
 6.122449e-02  2.040816e-01  1.040434e+00 
 8.163265e-02  2.040816e-01  1.060790e+00 
 1.020408e-01  2.040816e-01  1.081111e+00 
 1.224490e-01  2.040816e-01  1.101391e+00 
 1.428571e-01  2.040816e-01  1.121619e+00 
 1.632653e-01  2.040816e-01  1.141788e+00 
 1.836735e-01  2.040816e-01  1.161890e+00 
 2.040816e-01  2.040816e-01  1.181915e+00 
 2.244898e-01  2.040816e-01  1.201857e+00 
 2.448980e-01  2.040816e-01  1.221705e+00 
 2.653061e-01  2.040816e-01  1.241452e+00 
 2.857143e-01  2.040816e-01  1.261090e+00 
 3.061224e-01  2.040816e-01  1.280611e+00 
 3.265306e-01  2.040816e-01  1.300006e+00 
 3.469388e-01  2.040816e-01  1.319268e+00 
 3.673469e-01  2.040816e-01  1.338388e+00 
 3.877551e-01  2.040816e-01  1.357359e+00 
 4.081633e-01  2.040816e-01  1.376172e+00 
 4.285714e-01  2.040816e-01  1.394819e+00 
 4.489796e-01  2.040816e-01  1.413294e+00 
 4.693878e-01  2.040816e-01  1.431588e+00 
 4.897959e-01  2.040816e-01  1.449693e+00 
 5.102041e-01  2.040816e-01  1.467603e+00 
 5.306122e-01  2.040816e-01  1.485309e+00 
 5.510204e-01  2.040816e-01  1.502804e+00 
 5.714286e-01  2.040816e-01  1.520082e+00 
 5.918367e-01  2.040816e-01  1.537134e+00 
 6.122449e-01  2.040816e-01  1.553954e+00 
 6.326531e-01  2.040816e-01  1.570534e+00 
 6.530612e-01  2.040816e-01  1.586868e+00 
 6.734694e-01  2.040816e-01  1.602949e+00 
 6.938776e-01  2.040816e-01  1.618770e+00 
 7.142857e-01  2.040816e-01  1.634325e+00 
 7.346939e-01  2.040816e-01  1.649608e+00 
 7.551020e-01  2.040816e-01  1.664610e+00 
 7.755102e-01  2.040816e-01  1.679328e+00 
 7.959184e-01  2.040816e-01  1.693754e+00 
 8.163265e-01  2.040816e-01  1.707882e+00 
 8.367347e-01  2.040816e-01  1.721707e+00 
 8.571429e-01  2.040816e-01  1.735223e+00 
 8.775510e-01  2.040816e-01  1.748424e+00 
 8.979592e-01  2.040816e-01  1.761304e+00 
 9.183673e-01  2.040816e-01  1.773859e+00 
 9.387755e-01  2.040816e-01  1.786083e+00 
 9.591837e-01  2.040816e-01  1.797971e+00 
 9.795918e-01  2.040816e-01  1.809517e+00 
 1.000000e+00  2.040816e-01  1.820719e+00 
 0.000000e+00  2.244898e-01  9.749078e-01 
 2.040816e-02  2.244898e-01  9.953146e-01 
 4.081633e-02  2.244898e-01  1.015713e+00 
 6.122449e-02  2.244898e-01  1.036094e+00 
 8.163265e-02  2.244898e-01  1.056450e+00 
 1.020408e-01  2.244898e-01  1.076772e+00 
 1.224490e-01  2.244898e-01  1.097051e+00 
 1.428571e-01  2.244898e-01  1.117280e+00 
 1.632653e-01  2.244898e-01  1.137449e+00 
 1.836735e-01  2.244898e-01  1.157550e+00 
 2.040816e-01  2.244898e-01  1.177576e+00 
 2.244898e-01  2.244898e-01  1.197517e+00 
 2.448980e-01  2.244898e-01  1.217365e+00 
 2.653061e-01  2.244898e-01  1.237113e+00 
 2.857143e-01  2.244898e-01  1.256751e+00 
 3.061224e-01  2.244898e-01  1.276271e+00 
 3.265306e-01  2.244898e-01  1.295667e+00 
 3.469388e-01  2.244898e-01  1.314928e+00 
 3.673469e-01  2.244898e-01  1.334048e+00 
 3.877551e-01  2.244898e-01  1.353019e+00 
 4.081633e-01  2.244898e-01  1.371832e+00 
 4.285714e-01  2.244898e-01  1.390480e+00 
 4.489796e-01  2.244898e-01  1.408954e+00 
 4.693878e-01  2.244898e-01  1.427248e+00 
 4.897959e-01  2.244898e-01  1.445354e+00 
 5.102041e-01  2.244898e-01  1.463263e+00 
 5.306122e-01  2.244898e-01  1.480969e+00 
 5.510204e-01  2.244898e-01  1.498465e+00 
 5.714286e-01  2.244898e-01  1.515742e+00 
 5.918367e-01  2.244898e-01  1.532794e+00 
 6.122449e-01  2.244898e-01  1.549614e+00 
 6.326531e-01  2.244898e-01  1.566194e+00 
 6.530612e-01  2.244898e-01  1.582528e+00 
 6.734694e-01  2.244898e-01  1.598609e+00 
 6.938776e-01  2.244898e-01  1.614431e+00 
 7.142857e-01  2.244898e-01  1.629986e+00 
 7.346939e-01  2.244898e-01  1.645268e+00 
 7.551020e-01  2.244898e-01  1.660271e+00 
 7.755102e-01  2.244898e-01  1.674988e+00 
 7.959184e-01  2.244898e-01  1.689414e+00 
 8.163265e-01  2.244898e-01  1.703543e+00 
 8.367347e-01  2.244898e-01  1.717367e+00 
 8.571429e-01  2.244898e-01  1.730883e+00 
 8.775510e-01  2.244898e-01  1.744084e+00 
 8.979592e-01  2.244898e-01  1.756964e+00 
 9.183673e-01  2.244898e-01  1.769519e+00 
 9.387755e-01  2.244898e-01  1.781743e+00 
 9.591837e-01  2.244898e-01  1.793631e+00 
 9.795918e-01  2.244898e-01  1.805178e+00 
 1.000000e+00  2.244898e-01  1.816379e+00 
 0.000000e+00  2.448980e-01  9.701621e-01 
 2.040816e-02  2.448980e-01  9.905688e-01 
 4.081633e-02  2.448980e-01  1.010967e+00 
 6.122449e-02  2.448980e-01  1.031348e+00 
 8.163265e-02  2.448980e-01  1.051704e+00 
 1.020408e-01  2.448980e-01  1.072026e+00 
 1.224490e-01  2.448980e-01  1.092305e+00 
 1.428571e-01  2.448980e-01  1.112534e+00 
 1.632653e-01  2.448980e-01  1.132703e+00 
 1.836735e-01  2.448980e-01  1.152805e+00 
 2.040816e-01  2.448980e-01  1.172830e+00 
 2.244898e-01  2.448980e-01  1.192771e+00 
 2.448980e-01  2.448980e-01  1.212619e+00 
 2.653061e-01  2.448980e-01  1.232367e+00 
 2.857143e-01  2.448980e-01  1.252005e+00 
 3.061224e-01  2.448980e-01  1.271526e+00 
 3.265306e-01  2.448980e-01  1.290921e+00 
 3.469388e-01  2.448980e-01  1.310183e+00 
 3.673469e-01  2.448980e-01  1.329303e+00 
 3.877551e-01  2.448980e-01  1.348273e+00 
 4.081633e-01  2.448980e-01  1.367086e+00 
 4.285714e-01  2.448980e-01  1.385734e+00 
 4.489796e-01  2.448980e-01  1.404209e+00 
 4.693878e-01  2.448980e-01  1.422502e+00 
 4.897959e-01  2.448980e-01  1.440608e+00 
 5.102041e-01  2.448980e-01  1.458517e+00 
 5.306122e-01  2.448980e-01  1.476224e+00 
 5.510204e-01  2.448980e-01  1.493719e+00 
 5.714286e-01  2.448980e-01  1.510996e+00 
 5.918367e-01  2.448980e-01  1.528048e+00 
 6.122449e-01  2.448980e-01  1.544868e+00 
 6.326531e-01  2.448980e-01  1.561448e+00 
 6.530612e-01  2.448980e-01  1.577783e+00 
 6.734694e-01  2.448980e-01  1.593864e+00 
 6.938776e-01  2.448980e-01  1.609685e+00 
 7.142857e-01  2.448980e-01  1.625240e+00 
 7.346939e-01  2.448980e-01  1.640522e+00 
 7.551020e-01  2.448980e-01  1.655525e+00 
 7.755102e-01  2.448980e-01  1.670243e+00 
 7.959184e-01  2.448980e-01  1.684668e+00 
 8.163265e-01  2.448980e-01  1.698797e+00 
 8.367347e-01  2.448980e-01  1.712622e+00 
 8.571429e-01  2.448980e-01  1.726137e+00 
 8.775510e-01  2.448980e-01  1.739338e+00 
 8.979592e-01  2.448980e-01  1.752219e+00 
 9.183673e-01  2.448980e-01  1.764774e+00 
 9.387755e-01  2.448980e-01  1.776997e+00 
 9.591837e-01  2.448980e-01  1.788885e+00 
 9.795918e-01  2.448980e-01  1.800432e+00 
 1.000000e+00  2.448980e-01  1.811633e+00 
 0.000000e+00  2.653061e-01  9.650123e-01 
 2.040816e-02  2.653061e-01  9.854190e-01 
 4.081633e-02  2.653061e-01  1.005817e+00 
 6.122449e-02  2.653061e-01  1.026199e+00 
 8.163265e-02  2.653061e-01  1.046554e+00 
 1.020408e-01  2.653061e-01  1.066876e+00 
 1.224490e-01  2.653061e-01  1.087155e+00 
 1.428571e-01  2.653061e-01  1.107384e+00 
 1.632653e-01  2.653061e-01  1.127553e+00 
 1.836735e-01  2.653061e-01  1.147655e+00 
 2.040816e-01  2.653061e-01  1.167680e+00 
 2.244898e-01  2.653061e-01  1.187621e+00 
 2.448980e-01  2.653061e-01  1.207470e+00 
 2.653061e-01  2.653061e-01  1.227217e+00 
 2.857143e-01  2.653061e-01  1.246855e+00 
 3.061224e-01  2.653061e-01  1.266376e+00 
 3.265306e-01  2.653061e-01  1.285771e+00 
 3.469388e-01  2.653061e-01  1.305033e+00 
 3.673469e-01  2.653061e-01  1.324153e+00 
 3.877551e-01  2.653061e-01  1.343123e+00 
 4.081633e-01  2.653061e-01  1.361936e+00 
 4.285714e-01  2.653061e-01  1.380584e+00 
 4.489796e-01  2.653061e-01  1.399059e+00 
 4.693878e-01  2.653061e-01  1.417353e+00 
 4.897959e-01  2.653061e-01  1.435458e+00 
 5.102041e-01  2.653061e-01  1.453368e+00 
 5.306122e-01  2.653061e-01  1.471074e+00 
 5.510204e-01  2.653061e-01  1.488569e+00 
 5.714286e-01  2.653061e-01  1.505846e+00 
 5.918367e-01  2.653061e-01  1.522899e+00 
 6.122449e-01  2.653061e-01  1.539718e+00 
 6.326531e-01  2.653061e-01  1.556299e+00 
 6.530612e-01  2.653061e-01  1.572633e+00 
 6.734694e-01  2.653061e-01  1.588714e+00 
 6.938776e-01  2.653061e-01  1.604535e+00 
 7.142857e-01  2.653061e-01  1.620090e+00 
 7.346939e-01  2.653061e-01  1.635372e+00 
 7.551020e-01  2.653061e-01  1.650375e+00 
 7.755102e-01  2.653061e-01  1.665093e+00 
 7.959184e-01  2.653061e-01  1.679519e+00 
 8.163265e-01  2.653061e-01  1.693647e+00 
 8.367347e-01  2.653061e-01  1.707472e+00 
 8.571429e-01  2.653061e-01  1.720988e+00 
 8.775510e-01  2.653061e-01  1.734188e+00 
 8.979592e-01  2.653061e-01  1.747069e+00 