 TITLE = 'Scalar'
 VARIABLES = 'X', 'Y' , 'Scalar'   
ZONE T = "Scalar zone", I = 50 , J = 50 , F = POINT 
0.000000e+00  0.000000e+00  1.000000e+00 
 2.040816e-02  0.000000e+00  1.020407e+00 
 4.081633e-02  0.000000e+00  1.040805e+00 
 6.122449e-02  0.000000e+00  1.061186e+00 
 8.163265e-02  0.000000e+00  1.081542e+00 
 1.020408e-01  0.000000e+00  1.101864e+00 
 1.224490e-01  0.000000e+00  1.122143e+00 
 1.428571e-01  0.000000e+00  1.142372e+00 
 1.632653e-01  0.000000e+00  1.162541e+00 
 1.836735e-01  0.000000e+00  1.182642e+00 
 2.040816e-01  0.000000e+00  1.202668e+00 
 2.244898e-01  0.000000e+00  1.222609e+00 
 2.448980e-01  0.000000e+00  1.242457e+00 
 2.653061e-01  0.000000e+00  1.262205e+00 
 2.857143e-01  0.000000e+00  1.281843e+00 
 3.061224e-01  0.000000e+00  1.301364e+00 
 3.265306e-01  0.000000e+00  1.320759e+00 
 3.469388e-01  0.000000e+00  1.340021e+00 
 3.673469e-01  0.000000e+00  1.359141e+00 
 3.877551e-01  0.000000e+00  1.378111e+00 
 4.081633e-01  0.000000e+00  1.396924e+00 
 4.285714e-01  0.000000e+00  1.415572e+00 
 4.489796e-01  0.000000e+00  1.434046e+00 
 4.693878e-01  0.000000e+00  1.452340e+00 
 4.897959e-01  0.000000e+00  1.470446e+00 
 5.102041e-01  0.000000e+00  1.488355e+00 
 5.306122e-01  0.000000e+00  1.506061e+00 
 5.510204e-01  0.000000e+00  1.523557e+00 
 5.714286e-01  0.000000e+00  1.540834e+00 
 5.918367e-01  0.000000e+00  1.557886e+00 
 6.122449e-01  0.000000e+00  1.574706e+00 
 6.326531e-01  0.000000e+00  1.591286e+00 
 6.530612e-01  0.000000e+00  1.607621e+00 
 6.734694e-01  0.000000e+00  1.623702e+00 
 6.938776e-01  0.000000e+00  1.639523e+00 
 7.142857e-01  0.000000e+00  1.655078e+00 
 7.346939e-01  0.000000e+00  1.670360e+00 
 7.551020e-01  0.000000e+00  1.685363e+00 
 7.755102e-01  0.000000e+00  1.700080e+00 
 7.959184e-01  0.000000e+00  1.714506e+00 
 8.163265e-01  0.000000e+00  1.728635e+00 
 8.367347e-01  0.000000e+00  1.742460e+00 
 8.571429e-01  0.000000e+00  1.755975e+00 
 8.775510e-01  0.000000e+00  1.769176e+00 
 8.979592e-01  0.000000e+00  1.782057e+00 
 9.183673e-01  0.000000e+00  1.794611e+00 
 9.387755e-01  0.000000e+00  1.806835e+00 
 9.591837e-01  0.000000e+00  1.818723e+00 
 9.795918e-01  0.000000e+00  1.830270e+00 
 1.000000e+00  0.000000e+00  1.841471e+00 
 0.000000e+00  2.040816e-02  9.997918e-01 
 2.040816e-02  2.040816e-02  0.000000e+00 
 4.081633e-02  2.040816e-02  0.000000e+00 
 6.122449e-02  2.040816e-02  0.000000e+00 
 8.163265e-02  2.040816e-02  0.000000e+00 
 1.020408e-01  2.040816e-02  0.000000e+00 
 1.224490e-01  2.040816e-02  0.000000e+00 
 1.428571e-01  2.040816e-02  0.000000e+00 
 1.632653e-01  2.040816e-02  0.000000e+00 
 1.836735e-01  2.040816e-02  0.000000e+00 
 2.040816e-01  2.040816e-02  0.000000e+00 
 2.244898e-01  2.040816e-02  0.000000e+00 
 2.448980e-01  2.040816e-02  0.000000e+00 
 2.653061e-01  2.040816e-02  0.000000e+00 
 2.857143e-01  2.040816e-02  0.000000e+00 
 3.061224e-01  2.040816e-02  0.000000e+00 
 3.265306e-01  2.040816e-02  0.000000e+00 
 3.469388e-01  2.040816e-02  0.000000e+00 
 3.673469e-01  2.040816e-02  0.000000e+00 
 3.877551e-01  2.040816e-02  0.000000e+00 
 4.081633e-01  2.040816e-02  0.000000e+00 
 4.285714e-01  2.040816e-02  0.000000e+00 
 4.489796e-01  2.040816e-02  0.000000e+00 
 4.693878e-01  2.040816e-02  0.000000e+00 
 4.897959e-01  2.040816e-02  0.000000e+00 
 5.102041e-01  2.040816e-02  0.000000e+00 
 5.306122e-01  2.040816e-02  0.000000e+00 
 5.510204e-01  2.040816e-02  0.000000e+00 
 5.714286e-01  2.040816e-02  0.000000e+00 
 5.918367e-01  2.040816e-02  0.000000e+00 
 6.122449e-01  2.040816e-02  0.000000e+00 
 6.326531e-01  2.040816e-02  0.000000e+00 
 6.530612e-01  2.040816e-02  0.000000e+00 
 6.734694e-01  2.040816e-02  0.000000e+00 
 6.938776e-01  2.040816e-02  0.000000e+00 
 7.142857e-01  2.040816e-02  0.000000e+00 
 7.346939e-01  2.040816e-02  0.000000e+00 
 7.551020e-01  2.040816e-02  0.000000e+00 
 7.755102e-01  2.040816e-02  0.000000e+00 
 7.959184e-01  2.040816e-02  0.000000e+00 
 8.163265e-01  2.040816e-02  0.000000e+00 
 8.367347e-01  2.040816e-02  0.000000e+00 
 8.571429e-01  2.040816e-02  0.000000e+00 
 8.775510e-01  2.040816e-02  0.000000e+00 
 8.979592e-01  2.040816e-02  0.000000e+00 
 9.183673e-01  2.040816e-02  0.000000e+00 
 9.387755e-01  2.040816e-02  0.000000e+00 
 9.591837e-01  2.040816e-02  0.000000e+00 
 9.795918e-01  2.040816e-02  0.000000e+00 
 1.000000e+00  2.040816e-02  1.841263e+00 
 0.000000e+00  4.081633e-02  9.991671e-01 
 2.040816e-02  4.081633e-02  0.000000e+00 
 4.081633e-02  4.081633e-02  0.000000e+00 
 6.122449e-02  4.081633e-02  0.000000e+00 
 8.163265e-02  4.081633e-02  0.000000e+00 
 1.020408e-01  4.081633e-02  0.000000e+00 
 1.224490e-01  4.081633e-02  0.000000e+00 
 1.428571e-01  4.081633e-02  0.000000e+00 
 1.632653e-01  4.081633e-02  0.000000e+00 
 1.836735e-01  4.081633e-02  0.000000e+00 
 2.040816e-01  4.081633e-02  0.000000e+00 
 2.244898e-01  4.081633e-02  0.000000e+00 
 2.448980e-01  4.081633e-02  0.000000e+00 
 2.653061e-01  4.081633e-02  0.000000e+00 
 2.857143e-01  4.081633e-02  0.000000e+00 
 3.061224e-01  4.081633e-02  0.000000e+00 
 3.265306e-01  4.081633e-02  0.000000e+00 
 3.469388e-01  4.081633e-02  0.000000e+00 
 3.673469e-01  4.081633e-02  0.000000e+00 
 3.877551e-01  4.081633e-02  0.000000e+00 
 4.081633e-01  4.081633e-02  0.000000e+00 
 4.285714e-01  4.081633e-02  0.000000e+00 
 4.489796e-01  4.081633e-02  0.000000e+00 
 4.693878e-01  4.081633e-02  0.000000e+00 
 4.897959e-01  4.081633e-02  0.000000e+00 
 5.102041e-01  4.081633e-02  0.000000e+00 
 5.306122e-01  4.081633e-02  0.000000e+00 
 5.510204e-01  4.081633e-02  0.000000e+00 
 5.714286e-01  4.081633e-02  0.000000e+00 
 5.918367e-01  4.081633e-02  0.000000e+00 
 6.122449e-01  4.081633e-02  0.000000e+00 
 6.326531e-01  4.081633e-02  0.000000e+00 
 6.530612e-01  4.081633e-02  0.000000e+00 
 6.734694e-01  4.081633e-02  0.000000e+00 
 6.938776e-01  4.081633e-02  0.000000e+00 
 7.142857e-01  4.081633e-02  0.000000e+00 
 7.346939e-01  4.081633e-02  0.000000e+00 
 7.551020e-01  4.081633e-02  0.000000e+00 
 7.755102e-01  4.081633e-02  0.000000e+00 
 7.959184e-01  4.081633e-02  0.000000e+00 
 8.163265e-01  4.081633e-02  0.000000e+00 
 8.367347e-01  4.081633e-02  0.000000e+00 
 8.571429e-01  4.081633e-02  0.000000e+00 
 8.775510e-01  4.081633e-02  0.000000e+00 
 8.979592e-01  4.081633e-02  0.000000e+00 
 9.183673e-01  4.081633e-02  0.000000e+00 
 9.387755e-01  4.081633e-02  0.000000e+00 
 9.591837e-01  4.081633e-02  0.000000e+00 
 9.795918e-01  4.081633e-02  0.000000e+00 
 1.000000e+00  4.081633e-02  1.840638e+00 
 0.000000e+00  6.122449e-02  9.981264e-01 
 2.040816e-02  6.122449e-02  0.000000e+00 
 4.081633e-02  6.122449e-02  0.000000e+00 
 6.122449e-02  6.122449e-02  0.000000e+00 
 8.163265e-02  6.122449e-02  0.000000e+00 
 1.020408e-01  6.122449e-02  0.000000e+00 
 1.224490e-01  6.122449e-02  0.000000e+00 
 1.428571e-01  6.122449e-02  0.000000e+00 
 1.632653e-01  6.122449e-02  0.000000e+00 
 1.836735e-01  6.122449e-02  0.000000e+00 
 2.040816e-01  6.122449e-02  0.000000e+00 
 2.244898e-01  6.122449e-02  0.000000e+00 
 2.448980e-01  6.122449e-02  0.000000e+00 
 2.653061e-01  6.122449e-02  0.000000e+00 
 2.857143e-01  6.122449e-02  0.000000e+00 
 3.061224e-01  6.122449e-02  0.000000e+00 
 3.265306e-01  6.122449e-02  0.000000e+00 
 3.469388e-01  6.122449e-02  0.000000e+00 
 3.673469e-01  6.122449e-02  0.000000e+00 
 3.877551e-01  6.122449e-02  0.000000e+00 
 4.081633e-01  6.122449e-02  0.000000e+00 
 4.285714e-01  6.122449e-02  0.000000e+00 
 4.489796e-01  6.122449e-02  0.000000e+00 
 4.693878e-01  6.122449e-02  0.000000e+00 
 4.897959e-01  6.122449e-02  0.000000e+00 
 5.102041e-01  6.122449e-02  0.000000e+00 
 5.306122e-01  6.122449e-02  0.000000e+00 
 5.510204e-01  6.122449e-02  0.000000e+00 
 5.714286e-01  6.122449e-02  0.000000e+00 
 5.918367e-01  6.122449e-02  0.000000e+00 
 6.122449e-01  6.122449e-02  0.000000e+00 
 6.326531e-01  6.122449e-02  0.000000e+00 
 6.530612e-01  6.122449e-02  0.000000e+00 
 6.734694e-01  6.122449e-02  0.000000e+00 
 6.938776e-01  6.122449e-02  0.000000e+00 
 7.142857e-01  6.122449e-02  0.000000e+00 
 7.346939e-01  6.122449e-02  0.000000e+00 
 7.551020e-01  6.122449e-02  0.000000e+00 
 7.755102e-01  6.122449e-02  0.000000e+00 
 7.959184e-01  6.122449e-02  0.000000e+00 
 8.163265e-01  6.122449e-02  0.000000e+00 
 8.367347e-01  6.122449e-02  0.000000e+00 
 8.571429e-01  6.122449e-02  0.000000e+00 
 8.775510e-01  6.122449e-02  0.000000e+00 
 8.979592e-01  6.122449e-02  0.000000e+00 
 9.183673e-01  6.122449e-02  0.000000e+00 
 9.387755e-01  6.122449e-02  0.000000e+00 
 9.591837e-01  6.122449e-02  0.000000e+00 
 9.795918e-01  6.122449e-02  0.000000e+00 
 1.000000e+00  6.122449e-02  1.839597e+00 
 0.000000e+00  8.163265e-02  9.966699e-01 
 2.040816e-02  8.163265e-02  0.000000e+00 
 4.081633e-02  8.163265e-02  0.000000e+00 
 6.122449e-02  8.163265e-02  0.000000e+00 
 8.163265e-02  8.163265e-02  0.000000e+00 
 1.020408e-01  8.163265e-02  0.000000e+00 
 1.224490e-01  8.163265e-02  0.000000e+00 
 1.428571e-01  8.163265e-02  0.000000e+00 
 1.632653e-01  8.163265e-02  0.000000e+00 
 1.836735e-01  8.163265e-02  0.000000e+00 
 2.040816e-01  8.163265e-02  0.000000e+00 
 2.244898e-01  8.163265e-02  0.000000e+00 
 2.448980e-01  8.163265e-02  0.000000e+00 
 2.653061e-01  8.163265e-02  0.000000e+00 
 2.857143e-01  8.163265e-02  0.000000e+00 
 3.061224e-01  8.163265e-02  0.000000e+00 
 3.265306e-01  8.163265e-02  0.000000e+00 
 3.469388e-01  8.163265e-02  0.000000e+00 
 3.673469e-01  8.163265e-02  0.000000e+00 
 3.877551e-01  8.163265e-02  0.000000e+00 
 4.081633e-01  8.163265e-02  0.000000e+00 
 4.285714e-01  8.163265e-02  0.000000e+00 
 4.489796e-01  8.163265e-02  0.000000e+00 
 4.693878e-01  8.163265e-02  0.000000e+00 
 4.897959e-01  8.163265e-02  0.000000e+00 
 5.102041e-01  8.163265e-02  0.000000e+00 
 5.306122e-01  8.163265e-02  0.000000e+00 
 5.510204e-01  8.163265e-02  0.000000e+00 
 5.714286e-01  8.163265e-02  0.000000e+00 
 5.918367e-01  8.163265e-02  0.000000e+00 
 6.122449e-01  8.163265e-02  0.000000e+00 
 6.326531e-01  8.163265e-02  0.000000e+00 
 6.530612e-01  8.163265e-02  0.000000e+00 
 6.734694e-01  8.163265e-02  0.000000e+00 
 6.938776e-01  8.163265e-02  0.000000e+00 
 7.142857e-01  8.163265e-02  0.000000e+00 
 7.346939e-01  8.163265e-02  0.000000e+00 
 7.551020e-01  8.163265e-02  0.000000e+00 
 7.755102e-01  8.163265e-02  0.000000e+00 
 7.959184e-01  8.163265e-02  0.000000e+00 
 8.163265e-01  8.163265e-02  0.000000e+00 
 8.367347e-01  8.163265e-02  0.000000e+00 
 8.571429e-01  8.163265e-02  0.000000e+00 
 8.775510e-01  8.163265e-02  0.000000e+00 
 8.979592e-01  8.163265e-02  0.000000e+00 
 9.183673e-01  8.163265e-02  0.000000e+00 
 9.387755e-01  8.163265e-02  0.000000e+00 
 9.591837e-01  8.163265e-02  0.000000e+00 
 9.795918e-01  8.163265e-02  0.000000e+00 
 1.000000e+00  8.163265e-02  1.838141e+00 
 0.000000e+00  1.020408e-01  9.947984e-01 
 2.040816e-02  1.020408e-01  0.000000e+00 
 4.081633e-02  1.020408e-01  0.000000e+00 
 6.122449e-02  1.020408e-01  0.000000e+00 
 8.163265e-02  1.020408e-01  0.000000e+00 
 1.020408e-01  1.020408e-01  0.000000e+00 
 1.224490e-01  1.020408e-01  0.000000e+00 
 1.428571e-01  1.020408e-01  0.000000e+00 
 1.632653e-01  1.020408e-01  0.000000e+00 
 1.836735e-01  1.020408e-01  0.000000e+00 
 2.040816e-01  1.020408e-01  0.000000e+00 
 2.244898e-01  1.020408e-01  0.000000e+00 
 2.448980e-01  1.020408e-01  0.000000e+00 
 2.653061e-01  1.020408e-01  0.000000e+00 
 2.857143e-01  1.020408e-01  0.000000e+00 
 3.061224e-01  1.020408e-01  0.000000e+00 
 3.265306e-01  1.020408e-01  0.000000e+00 
 3.469388e-01  1.020408e-01  0.000000e+00 
 3.673469e-01  1.020408e-01  0.000000e+00 
 3.877551e-01  1.020408e-01  0.000000e+00 
 4.081633e-01  1.020408e-01  0.000000e+00 
 4.285714e-01  1.020408e-01  0.000000e+00 
 4.489796e-01  1.020408e-01  0.000000e+00 
 4.693878e-01  1.020408e-01  0.000000e+00 
 4.897959e-01  1.020408e-01  0.000000e+00 
 5.102041e-01  1.020408e-01  0.000000e+00 
 5.306122e-01  1.020408e-01  0.000000e+00 
 5.510204e-01  1.020408e-01  0.000000e+00 
 5.714286e-01  1.020408e-01  0.000000e+00 
 5.918367e-01  1.020408e-01  0.000000e+00 
 6.122449e-01  1.020408e-01  0.000000e+00 
 6.326531e-01  1.020408e-01  0.000000e+00 
 6.530612e-01  1.020408e-01  0.000000e+00 
 6.734694e-01  1.020408e-01  0.000000e+00 
 6.938776e-01  1.020408e-01  0.000000e+00 
 7.142857e-01  1.020408e-01  0.000000e+00 
 7.346939e-01  1.020408e-01  0.000000e+00 
 7.551020e-01  1.020408e-01  0.000000e+00 
 7.755102e-01  1.020408e-01  0.000000e+00 
 7.959184e-01  1.020408e-01  0.000000e+00 
 8.163265e-01  1.020408e-01  0.000000e+00 
 8.367347e-01  1.020408e-01  0.000000e+00 
 8.571429e-01  1.020408e-01  0.000000e+00 
 8.775510e-01  1.020408e-01  0.000000e+00 
 8.979592e-01  1.020408e-01  0.000000e+00 
 9.183673e-01  1.020408e-01  0.000000e+00 
 9.387755e-01  1.020408e-01  0.000000e+00 
 9.591837e-01  1.020408e-01  0.000000e+00 
 9.795918e-01  1.020408e-01  0.000000e+00 
 1.000000e+00  1.020408e-01  1.836269e+00 
 0.000000e+00  1.224490e-01  9.925125e-01 
 2.040816e-02  1.224490e-01  0.000000e+00 
 4.081633e-02  1.224490e-01  0.000000e+00 
 6.122449e-02  1.224490e-01  0.000000e+00 
 8.163265e-02  1.224490e-01  0.000000e+00 
 1.020408e-01  1.224490e-01  0.000000e+00 
 1.224490e-01  1.224490e-01  0.000000e+00 
 1.428571e-01  1.224490e-01  0.000000e+00 
 1.632653e-01  1.224490e-01  0.000000e+00 
 1.836735e-01  1.224490e-01  0.000000e+00 
 2.040816e-01  1.224490e-01  0.000000e+00 
 2.244898e-01  1.224490e-01  0.000000e+00 
 2.448980e-01  1.224490e-01  0.000000e+00 
 2.653061e-01  1.224490e-01  0.000000e+00 
 2.857143e-01  1.224490e-01  0.000000e+00 
 3.061224e-01  1.224490e-01  0.000000e+00 
 3.265306e-01  1.224490e-01  0.000000e+00 
 3.469388e-01  1.224490e-01  0.000000e+00 
 3.673469e-01  1.224490e-01  0.000000e+00 
 3.877551e-01  1.224490e-01  0.000000e+00 
 4.081633e-01  1.224490e-01  0.000000e+00 
 4.285714e-01  1.224490e-01  0.000000e+00 
 4.489796e-01  1.224490e-01  0.000000e+00 
 4.693878e-01  1.224490e-01  0.000000e+00 
 4.897959e-01  1.224490e-01  0.000000e+00 
 5.102041e-01  1.224490e-01  0.000000e+00 
 5.306122e-01  1.224490e-01  0.000000e+00 
 5.510204e-01  1.224490e-01  0.000000e+00 
 5.714286e-01  1.224490e-01  0.000000e+00 
 5.918367e-01  1.224490e-01  0.000000e+00 
 6.122449e-01  1.224490e-01  0.000000e+00 
 6.326531e-01  1.224490e-01  0.000000e+00 
 6.530612e-01  1.224490e-01  0.000000e+00 
 6.734694e-01  1.224490e-01  0.000000e+00 
 6.938776e-01  1.224490e-01  0.000000e+00 
 7.142857e-01  1.224490e-01  0.000000e+00 
 7.346939e-01  1.224490e-01  0.000000e+00 
 7.551020e-01  1.224490e-01  0.000000e+00 
 7.755102e-01  1.224490e-01  0.000000e+00 
 7.959184e-01  1.224490e-01  0.000000e+00 
 8.163265e-01  1.224490e-01  0.000000e+00 
 8.367347e-01  1.224490e-01  0.000000e+00 
 8.571429e-01  1.224490e-01  0.000000e+00 
 8.775510e-01  1.224490e-01  0.000000e+00 
 8.979592e-01  1.224490e-01  0.000000e+00 
 9.183673e-01  1.224490e-01  0.000000e+00 
 9.387755e-01  1.224490e-01  0.000000e+00 
 9.591837e-01  1.224490e-01  0.000000e+00 
 9.795918e-01  1.224490e-01  0.000000e+00 
 1.000000e+00  1.224490e-01  1.833983e+00 
 0.000000e+00  1.428571e-01  9.898133e-01 
 2.040816e-02  1.428571e-01  0.000000e+00 
 4.081633e-02  1.428571e-01  0.000000e+00 
 6.122449e-02  1.428571e-01  0.000000e+00 
 8.163265e-02  1.428571e-01  0.000000e+00 
 1.020408e-01  1.428571e-01  0.000000e+00 
 1.224490e-01  1.428571e-01  0.000000e+00 
 1.428571e-01  1.428571e-01  0.000000e+00 
 1.632653e-01  1.428571e-01  0.000000e+00 
 1.836735e-01  1.428571e-01  0.000000e+00 
 2.040816e-01  1.428571e-01  0.000000e+00 
 2.244898e-01  1.428571e-01  0.000000e+00 
 2.448980e-01  1.428571e-01  0.000000e+00 
 2.653061e-01  1.428571e-01  0.000000e+00 
 2.857143e-01  1.428571e-01  0.000000e+00 
 3.061224e-01  1.428571e-01  0.000000e+00 
 3.265306e-01  1.428571e-01  0.000000e+00 
 3.469388e-01  1.428571e-01  0.000000e+00 
 3.673469e-01  1.428571e-01  0.000000e+00 
 3.877551e-01  1.428571e-01  0.000000e+00 
 4.081633e-01  1.428571e-01  0.000000e+00 
 4.285714e-01  1.428571e-01  0.000000e+00 
 4.489796e-01  1.428571e-01  0.000000e+00 
 4.693878e-01  1.428571e-01  0.000000e+00 
 4.897959e-01  1.428571e-01  0.000000e+00 
 5.102041e-01  1.428571e-01  0.000000e+00 
 5.306122e-01  1.428571e-01  0.000000e+00 
 5.510204e-01  1.428571e-01  0.000000e+00 
 5.714286e-01  1.428571e-01  0.000000e+00 
 5.918367e-01  1.428571e-01  0.000000e+00 
 6.122449e-01  1.428571e-01  0.000000e+00 
 6.326531e-01  1.428571e-01  0.000000e+00 
 6.530612e-01  1.428571e-01  0.000000e+00 
 6.734694e-01  1.428571e-01  0.000000e+00 
 6.938776e-01  1.428571e-01  0.000000e+00 
 7.142857e-01  1.428571e-01  0.000000e+00 
 7.346939e-01  1.428571e-01  0.000000e+00 
 7.551020e-01  1.428571e-01  0.000000e+00 
 7.755102e-01  1.428571e-01  0.000000e+00 
 7.959184e-01  1.428571e-01  0.000000e+00 
 8.163265e-01  1.428571e-01  0.000000e+00 
 8.367347e-01  1.428571e-01  0.000000e+00 
 8.571429e-01  1.428571e-01  0.000000e+00 
 8.775510e-01  1.428571e-01  0.000000e+00 
 8.979592e-01  1.428571e-01  0.000000e+00 
 9.183673e-01  1.428571e-01  0.000000e+00 
 9.387755e-01  1.428571e-01  0.000000e+00 
 9.591837e-01  1.428571e-01  0.000000e+00 
 9.795918e-01  1.428571e-01  0.000000e+00 
 1.000000e+00  1.428571e-01  1.831284e+00 
 0.000000e+00  1.632653e-01  9.867018e-01 
 2.040816e-02  1.632653e-01  0.000000e+00 
 4.081633e-02  1.632653e-01  0.000000e+00 
 6.122449e-02  1.632653e-01  0.000000e+00 
 8.163265e-02  1.632653e-01  0.000000e+00 
 1.020408e-01  1.632653e-01  0.000000e+00 
 1.224490e-01  1.632653e-01  0.000000e+00 
 1.428571e-01  1.632653e-01  0.000000e+00 
 1.632653e-01  1.632653e-01  0.000000e+00 
 1.836735e-01  1.632653e-01  0.000000e+00 
 2.040816e-01  1.632653e-01  0.000000e+00 
 2.244898e-01  1.632653e-01  0.000000e+00 
 2.448980e-01  1.632653e-01  0.000000e+00 
 2.653061e-01  1.632653e-01  0.000000e+00 
 2.857143e-01  1.632653e-01  0.000000e+00 
 3.061224e-01  1.632653e-01  0.000000e+00 
 3.265306e-01  1.632653e-01  0.000000e+00 
 3.469388e-01  1.632653e-01  0.000000e+00 
 3.673469e-01  1.632653e-01  0.000000e+00 
 3.877551e-01  1.632653e-01  0.000000e+00 
 4.081633e-01  1.632653e-01  0.000000e+00 
 4.285714e-01  1.632653e-01  0.000000e+00 
 4.489796e-01  1.632653e-01  0.000000e+00 
 4.693878e-01  1.632653e-01  0.000000e+00 
 4.897959e-01  1.632653e-01  0.000000e+00 
 5.102041e-01  1.632653e-01  0.000000e+00 
 5.306122e-01  1.632653e-01  0.000000e+00 
 5.510204e-01  1.632653e-01  0.000000e+00 
 5.714286e-01  1.632653e-01  0.000000e+00 
 5.918367e-01  1.632653e-01  0.000000e+00 
 6.122449e-01  1.632653e-01  0.000000e+00 
 6.326531e-01  1.632653e-01  0.000000e+00 
 6.530612e-01  1.632653e-01  0.000000e+00 
 6.734694e-01  1.632653e-01  0.000000e+00 
 6.938776e-01  1.632653e-01  0.000000e+00 
 7.142857e-01  1.632653e-01  0.000000e+00 
 7.346939e-01  1.632653e-01  0.000000e+00 
 7.551020e-01  1.632653e-01  0.000000e+00 
 7.755102e-01  1.632653e-01  0.000000e+00 
 7.959184e-01  1.632653e-01  0.000000e+00 
 8.163265e-01  1.632653e-01  0.000000e+00 
 8.367347e-01  1.632653e-01  0.000000e+00 
 8.571429e-01  1.632653e-01  0.000000e+00 
 8.775510e-01  1.632653e-01  0.000000e+00 
 8.979592e-01  1.632653e-01  0.000000e+00 
 9.183673e-01  1.632653e-01  0.000000e+00 
 9.387755e-01  1.632653e-01  0.000000e+00 
 9.591837e-01  1.632653e-01  0.000000e+00 
 9.795918e-01  1.632653e-01  0.000000e+00 
 1.000000e+00  1.632653e-01  1.828173e+00 
 0.000000e+00  1.836735e-01  9.831794e-01 
 2.040816e-02  1.836735e-01  0.000000e+00 
 4.081633e-02  1.836735e-01  0.000000e+00 
 6.122449e-02  1.836735e-01  0.000000e+00 
 8.163265e-02  1.836735e-01  0.000000e+00 
 1.020408e-01  1.836735e-01  0.000000e+00 
 1.224490e-01  1.836735e-01  0.000000e+00 
 1.428571e-01  1.836735e-01  0.000000e+00 
 1.632653e-01  1.836735e-01  0.000000e+00 
 1.836735e-01  1.836735e-01  0.000000e+00 
 2.040816e-01  1.836735e-01  0.000000e+00 
 2.244898e-01  1.836735e-01  0.000000e+00 
 2.448980e-01  1.836735e-01  0.000000e+00 
 2.653061e-01  1.836735e-01  0.000000e+00 
 2.857143e-01  1.836735e-01  0.000000e+00 
 3.061224e-01  1.836735e-01  0.000000e+00 
 3.265306e-01  1.836735e-01  0.000000e+00 
 3.469388e-01  1.836735e-01  0.000000e+00 
 3.673469e-01  1.836735e-01  0.000000e+00 
 3.877551e-01  1.836735e-01  0.000000e+00 
 4.081633e-01  1.836735e-01  0.000000e+00 
 4.285714e-01  1.836735e-01  0.000000e+00 
 4.489796e-01  1.836735e-01  0.000000e+00 
 4.693878e-01  1.836735e-01  0.000000e+00 
 4.897959e-01  1.836735e-01  0.000000e+00 
 5.102041e-01  1.836735e-01  0.000000e+00 
 5.306122e-01  1.836735e-01  0.000000e+00 
 5.510204e-01  1.836735e-01  0.000000e+00 
 5.714286e-01  1.836735e-01  0.000000e+00 
 5.918367e-01  1.836735e-01  0.000000e+00 
 6.122449e-01  1.836735e-01  0.000000e+00 
 6.326531e-01  1.836735e-01  0.000000e+00 
 6.530612e-01  1.836735e-01  0.000000e+00 
 6.734694e-01  1.836735e-01  0.000000e+00 
 6.938776e-01  1.836735e-01  0.000000e+00 
 7.142857e-01  1.836735e-01  0.000000e+00 
 7.346939e-01  1.836735e-01  0.000000e+00 
 7.551020e-01  1.836735e-01  0.000000e+00 
 7.755102e-01  1.836735e-01  0.000000e+00 
 7.959184e-01  1.836735e-01  0.000000e+00 
 8.163265e-01  1.836735e-01  0.000000e+00 
 8.367347e-01  1.836735e-01  0.000000e+00 
 8.571429e-01  1.836735e-01  0.000000e+00 
 8.775510e-01  1.836735e-01  0.000000e+00 
 8.979592e-01  1.836735e-01  0.000000e+00 
 9.183673e-01  1.836735e-01  0.000000e+00 
 9.387755e-01  1.836735e-01  0.000000e+00 
 9.591837e-01  1.836735e-01  0.000000e+00 
 9.795918e-01  1.836735e-01  0.000000e+00 
 1.000000e+00  1.836735e-01  1.824650e+00 
 0.000000e+00  2.040816e-01  9.792475e-01 
 2.040816e-02  2.040816e-01  0.000000e+00 
 4.081633e-02  2.040816e-01  0.000000e+00 
 6.122449e-02  2.040816e-01  0.000000e+00 
 8.163265e-02  2.040816e-01  0.000000e+00 
 1.020408e-01  2.040816e-01  0.000000e+00 
 1.224490e-01  2.040816e-01  0.000000e+00 
 1.428571e-01  2.040816e-01  0.000000e+00 
 1.632653e-01  2.040816e-01  0.000000e+00 
 1.836735e-01  2.040816e-01  0.000000e+00 
 2.040816e-01  2.040816e-01  0.000000e+00 
 2.244898e-01  2.040816e-01  0.000000e+00 
 2.448980e-01  2.040816e-01  0.000000e+00 
 2.653061e-01  2.040816e-01  0.000000e+00 
 2.857143e-01  2.040816e-01  0.000000e+00 
 3.061224e-01  2.040816e-01  0.000000e+00 
 3.265306e-01  2.040816e-01  0.000000e+00 
 3.469388e-01  2.040816e-01  0.000000e+00 
 3.673469e-01  2.040816e-01  0.000000e+00 
 3.877551e-01  2.040816e-01  0.000000e+00 
 4.081633e-01  2.040816e-01  0.000000e+00 
 4.285714e-01  2.040816e-01  0.000000e+00 
 4.489796e-01  2.040816e-01  0.000000e+00 
 4.693878e-01  2.040816e-01  0.000000e+00 
 4.897959e-01  2.040816e-01  0.000000e+00 
 5.102041e-01  2.040816e-01  0.000000e+00 
 5.306122e-01  2.040816e-01  0.000000e+00 
 5.510204e-01  2.040816e-01  0.000000e+00 
 5.714286e-01  2.040816e-01  0.000000e+00 
 5.918367e-01  2.040816e-01  0.000000e+00 
 6.122449e-01  2.040816e-01  0.000000e+00 
 6.326531e-01  2.040816e-01  0.000000e+00 
 6.530612e-01  2.040816e-01  0.000000e+00 
 6.734694e-01  2.040816e-01  0.000000e+00 
 6.938776e-01  2.040816e-01  0.000000e+00 
 7.142857e-01  2.040816e-01  0.000000e+00 
 7.346939e-01  2.040816e-01  0.000000e+00 
 7.551020e-01  2.040816e-01  0.000000e+00 
 7.755102e-01  2.040816e-01  0.000000e+00 
 7.959184e-01  2.040816e-01  0.000000e+00 
 8.163265e-01  2.040816e-01  0.000000e+00 
 8.367347e-01  2.040816e-01  0.000000e+00 
 8.571429e-01  2.040816e-01  0.000000e+00 
 8.775510e-01  2.040816e-01  0.000000e+00 
 8.979592e-01  2.040816e-01  0.000000e+00 
 9.183673e-01  2.040816e-01  0.000000e+00 
 9.387755e-01  2.040816e-01  0.000000e+00 
 9.591837e-01  2.040816e-01  0.000000e+00 
 9.795918e-01  2.040816e-01  0.000000e+00 
 1.000000e+00  2.040816e-01  1.820719e+00 
 0.000000e+00  2.244898e-01  9.749078e-01 
 2.040816e-02  2.244898e-01  0.000000e+00 
 4.081633e-02  2.244898e-01  0.000000e+00 
 6.122449e-02  2.244898e-01  0.000000e+00 
 8.163265e-02  2.244898e-01  0.000000e+00 
 1.020408e-01  2.244898e-01  0.000000e+00 
 1.224490e-01  2.244898e-01  0.000000e+00 
 1.428571e-01  2.244898e-01  0.000000e+00 
 1.632653e-01  2.244898e-01  0.000000e+00 
 1.836735e-01  2.244898e-01  0.000000e+00 
 2.040816e-01  2.244898e-01  0.000000e+00 
 2.244898e-01  2.244898e-01  0.000000e+00 
 2.448980e-01  2.244898e-01  0.000000e+00 
 2.653061e-01  2.244898e-01  0.000000e+00 
 2.857143e-01  2.244898e-01  0.000000e+00 
 3.061224e-01  2.244898e-01  0.000000e+00 
 3.265306e-01  2.244898e-01  0.000000e+00 
 3.469388e-01  2.244898e-01  0.000000e+00 
 3.673469e-01  2.244898e-01  0.000000e+00 
 3.877551e-01  2.244898e-01  0.000000e+00 
 4.081633e-01  2.244898e-01  0.000000e+00 
 4.285714e-01  2.244898e-01  0.000000e+00 
 4.489796e-01  2.244898e-01  0.000000e+00 
 4.693878e-01  2.244898e-01  0.000000e+00 
 4.897959e-01  2.244898e-01  0.000000e+00 
 5.102041e-01  2.244898e-01  0.000000e+00 
 5.306122e-01  2.244898e-01  0.000000e+00 
 5.510204e-01  2.244898e-01  0.000000e+00 
 5.714286e-01  2.244898e-01  0.000000e+00 
 5.918367e-01  2.244898e-01  0.000000e+00 
 6.122449e-01  2.244898e-01  0.000000e+00 
 6.326531e-01  2.244898e-01  0.000000e+00 
 6.530612e-01  2.244898e-01  0.000000e+00 
 6.734694e-01  2.244898e-01  0.000000e+00 
 6.938776e-01  2.244898e-01  0.000000e+00 
 7.142857e-01  2.244898e-01  0.000000e+00 
 7.346939e-01  2.244898e-01  0.000000e+00 
 7.551020e-01  2.244898e-01  0.000000e+00 
 7.755102e-01  2.244898e-01  0.000000e+00 
 7.959184e-01  2.244898e-01  0.000000e+00 
 8.163265e-01  2.244898e-01  0.000000e+00 
 8.367347e-01  2.244898e-01  0.000000e+00 
 8.571429e-01  2.244898e-01  0.000000e+00 
 8.775510e-01  2.244898e-01  0.000000e+00 
 8.979592e-01  2.244898e-01  0.000000e+00 
 9.183673e-01  2.244898e-01  0.000000e+00 
 9.387755e-01  2.244898e-01  0.000000e+00 
 9.591837e-01  2.244898e-01  0.000000e+00 
 9.795918e-01  2.244898e-01  0.000000e+00 
 1.000000e+00  2.244898e-01  1.816379e+00 
 0.000000e+00  2.448980e-01  9.701621e-01 
 2.040816e-02  2.448980e-01  0.000000e+00 
 4.081633e-02  2.448980e-01  0.000000e+00 
 6.122449e-02  2.448980e-01  0.000000e+00 
 8.163265e-02  2.448980e-01  0.000000e+00 
 1.020408e-01  2.448980e-01  0.000000e+00 
 1.224490e-01  2.448980e-01  0.000000e+00 
 1.428571e-01  2.448980e-01  0.000000e+00 
 1.632653e-01  2.448980e-01  0.000000e+00 
 1.836735e-01  2.448980e-01  0.000000e+00 
 2.040816e-01  2.448980e-01  0.000000e+00 
 2.244898e-01  2.448980e-01  0.000000e+00 
 2.448980e-01  2.448980e-01  0.000000e+00 
 2.653061e-01  2.448980e-01  0.000000e+00 
 2.857143e-01  2.448980e-01  0.000000e+00 
 3.061224e-01  2.448980e-01  0.000000e+00 
 3.265306e-01  2.448980e-01  0.000000e+00 
 3.469388e-01  2.448980e-01  0.000000e+00 
 3.673469e-01  2.448980e-01  0.000000e+00 
 3.877551e-01  2.448980e-01  0.000000e+00 
 4.081633e-01  2.448980e-01  0.000000e+00 
 4.285714e-01  2.448980e-01  0.000000e+00 
 4.489796e-01  2.448980e-01  0.000000e+00 
 4.693878e-01  2.448980e-01  0.000000e+00 
 4.897959e-01  2.448980e-01  0.000000e+00 
 5.102041e-01  2.448980e-01  0.000000e+00 
 5.306122e-01  2.448980e-01  0.000000e+00 
 5.510204e-01  2.448980e-01  0.000000e+00 
 5.714286e-01  2.448980e-01  0.000000e+00 
 5.918367e-01  2.448980e-01  0.000000e+00 
 6.122449e-01  2.448980e-01  0.000000e+00 
 6.326531e-01  2.448980e-01  0.000000e+00 
 6.530612e-01  2.448980e-01  0.000000e+00 
 6.734694e-01  2.448980e-01  0.000000e+00 
 6.938776e-01  2.448980e-01  0.000000e+00 
 7.142857e-01  2.448980e-01  0.000000e+00 
 7.346939e-01  2.448980e-01  0.000000e+00 
 7.551020e-01  2.448980e-01  0.000000e+00 
 7.755102e-01  2.448980e-01  0.000000e+00 
 7.959184e-01  2.448980e-01  0.000000e+00 
 8.163265e-01  2.448980e-01  0.000000e+00 
 8.367347e-01  2.448980e-01  0.000000e+00 
 8.571429e-01  2.448980e-01  0.000000e+00 
 8.775510e-01  2.448980e-01  0.000000e+00 
 8.979592e-01  2.448980e-01  0.000000e+00 
 9.183673e-01  2.448980e-01  0.000000e+00 
 9.387755e-01  2.448980e-01  0.000000e+00 
 9.591837e-01  2.448980e-01  0.000000e+00 
 9.795918e-01  2.448980e-01  0.000000e+00 
 1.000000e+00  2.448980e-01  1.811633e+00 
 0.000000e+00  2.653061e-01  9.650123e-01 
 2.040816e-02  2.653061e-01  0.000000e+00 
 4.081633e-02  2.653061e-01  0.000000e+00 
 6.122449e-02  2.653061e-01  0.000000e+00 
 8.163265e-02  2.653061e-01  0.000000e+00 
 1.020408e-01  2.653061e-01  0.000000e+00 
 1.224490e-01  2.653061e-01  0.000000e+00 
 1.428571e-01  2.653061e-01  0.000000e+00 
 1.632653e-01  2.653061e-01  0.000000e+00 
 1.836735e-01  2.653061e-01  0.000000e+00 
 2.040816e-01  2.653061e-01  0.000000e+00 
 2.244898e-01  2.653061e-01  0.000000e+00 
 2.448980e-01  2.653061e-01  0.000000e+00 
 2.653061e-01  2.653061e-01  0.000000e+00 
 2.857143e-01  2.653061e-01  0.000000e+00 
 3.061224e-01  2.653061e-01  0.000000e+00 
 3.265306e-01  2.653061e-01  0.000000e+00 
 3.469388e-01  2.653061e-01  0.000000e+00 
 3.673469e-01  2.653061e-01  0.000000e+00 
 3.877551e-01  2.653061e-01  0.000000e+00 
 4.081633e-01  2.653061e-01  0.000000e+00 
 4.285714e-01  2.653061e-01  0.000000e+00 
 4.489796e-01  2.653061e-01  0.000000e+00 
 4.693878e-01  2.653061e-01  0.000000e+00 
 4.897959e-01  2.653061e-01  0.000000e+00 
 5.102041e-01  2.653061e-01  0.000000e+00 
 5.306122e-01  2.653061e-01  0.000000e+00 
 5.510204e-01  2.653061e-01  0.000000e+00 
 5.714286e-01  2.653061e-01  0.000000e+00 
 5.918367e-01  2.653061e-01  0.000000e+00 
 6.122449e-01  2.653061e-01  0.000000e+00 
 6.326531e-01  2.653061e-01  0.000000e+00 
 6.530612e-01  2.653061e-01  0.000000e+00 
 6.734694e-01  2.653061e-01  0.000000e+00 
 6.938776e-01  2.653061e-01  0.000000e+00 
 7.142857e-01  2.653061e-01  0.000000e+00 
 7.346939e-01  2.653061e-01  0.000000e+00 
 7.551020e-01  2.653061e-01  0.000000e+00 
 7.755102e-01  2.653061e-01  0.000000e+00 
 7.959184e-01  2.653061e-01  0.000000e+00 
 8.163265e-01  2.653061e-01  0.000000e+00 
 8.367347e-01  2.653061e-01  0.000000e+00 
 8.571429e-01  2.653061e-01  0.000000e+00 
 8.775510e-01  2.653061e-01  0.000000e+00 
 8.979592e-01  2.653061e-01  0.000000e+00 