 TITLE = 'Scalar'
 VARIABLES = 'X', 'Y' , 'Scalar'   
ZONE T = "Scalar zone", I = 50 , J = 50 , F = POINT 
0.000000e+00  0.000000e+00  1.000000e+00 
 2.040816e-02  0.000000e+00  1.020407e+00 
 4.081633e-02  0.000000e+00  1.040805e+00 
 6.122449e-02  0.000000e+00  1.061186e+00 
 8.163265e-02  0.000000e+00  1.081542e+00 
 1.020408e-01  0.000000e+00  1.101864e+00 
 1.224490e-01  0.000000e+00  1.122143e+00 
 1.428571e-01  0.000000e+00  1.142372e+00 
 1.632653e-01  0.000000e+00  1.162541e+00 
 1.836735e-01  0.000000e+00  1.182642e+00 
 2.040816e-01  0.000000e+00  1.202668e+00 
 2.244898e-01  0.000000e+00  1.222609e+00 
 2.448980e-01  0.000000e+00  1.242457e+00 
 2.653061e-01  0.000000e+00  1.262205e+00 
 2.857143e-01  0.000000e+00  1.281843e+00 
 3.061224e-01  0.000000e+00  1.301364e+00 
 3.265306e-01  0.000000e+00  1.320759e+00 
 3.469388e-01  0.000000e+00  1.340021e+00 
 3.673469e-01  0.000000e+00  1.359141e+00 
 3.877551e-01  0.000000e+00  1.378111e+00 
 4.081633e-01  0.000000e+00  1.396924e+00 
 4.285714e-01  0.000000e+00  1.415572e+00 
 4.489796e-01  0.000000e+00  1.434046e+00 
 4.693878e-01  0.000000e+00  1.452340e+00 
 4.897959e-01  0.000000e+00  1.470446e+00 
 5.102041e-01  0.000000e+00  1.488355e+00 
 5.306122e-01  0.000000e+00  1.506061e+00 
 5.510204e-01  0.000000e+00  1.523557e+00 
 5.714286e-01  0.000000e+00  1.540834e+00 
 5.918367e-01  0.000000e+00  1.557886e+00 
 6.122449e-01  0.000000e+00  1.574706e+00 
 6.326531e-01  0.000000e+00  1.591286e+00 
 6.530612e-01  0.000000e+00  1.607621e+00 
 6.734694e-01  0.000000e+00  1.623702e+00 
 6.938776e-01  0.000000e+00  1.639523e+00 
 7.142857e-01  0.000000e+00  1.655078e+00 
 7.346939e-01  0.000000e+00  1.670360e+00 
 7.551020e-01  0.000000e+00  1.685363e+00 
 7.755102e-01  0.000000e+00  1.700080e+00 
 7.959184e-01  0.000000e+00  1.714506e+00 
 8.163265e-01  0.000000e+00  1.728635e+00 
 8.367347e-01  0.000000e+00  1.742460e+00 
 8.571429e-01  0.000000e+00  1.755975e+00 
 8.775510e-01  0.000000e+00  1.769176e+00 
 8.979592e-01  0.000000e+00  1.782057e+00 
 9.183673e-01  0.000000e+00  1.794611e+00 
 9.387755e-01  0.000000e+00  1.806835e+00 
 9.591837e-01  0.000000e+00  1.818723e+00 
 9.795918e-01  0.000000e+00  1.830270e+00 
 1.000000e+00  0.000000e+00  1.841471e+00 
 0.000000e+00  2.040816e-02  9.997918e-01 
 2.040816e-02  2.040816e-02  1.020199e+00 
 4.081633e-02  2.040816e-02  1.040597e+00 
 6.122449e-02  2.040816e-02  1.060978e+00 
 8.163265e-02  2.040816e-02  1.081334e+00 
 1.020408e-01  2.040816e-02  1.101656e+00 
 1.224490e-01  2.040816e-02  1.121935e+00 
 1.428571e-01  2.040816e-02  1.142164e+00 
 1.632653e-01  2.040816e-02  1.162333e+00 
 1.836735e-01  2.040816e-02  1.182434e+00 
 2.040816e-01  2.040816e-02  1.202460e+00 
 2.244898e-01  2.040816e-02  1.222401e+00 
 2.448980e-01  2.040816e-02  1.242249e+00 
 2.653061e-01  2.040816e-02  1.261997e+00 
 2.857143e-01  2.040816e-02  1.281635e+00 
 3.061224e-01  2.040816e-02  1.301156e+00 
 3.265306e-01  2.040816e-02  1.320551e+00 
 3.469388e-01  2.040816e-02  1.339813e+00 
 3.673469e-01  2.040816e-02  1.358933e+00 
 3.877551e-01  2.040816e-02  1.377903e+00 
 4.081633e-01  2.040816e-02  1.396716e+00 
 4.285714e-01  2.040816e-02  1.415364e+00 
 4.489796e-01  2.040816e-02  1.433839e+00 
 4.693878e-01  2.040816e-02  1.452132e+00 
 4.897959e-01  2.040816e-02  1.470238e+00 
 5.102041e-01  2.040816e-02  1.488147e+00 
 5.306122e-01  2.040816e-02  1.505854e+00 
 5.510204e-01  2.040816e-02  1.523349e+00 
 5.714286e-01  2.040816e-02  1.540626e+00 
 5.918367e-01  2.040816e-02  1.557678e+00 
 6.122449e-01  2.040816e-02  1.574498e+00 
 6.326531e-01  2.040816e-02  1.591079e+00 
 6.530612e-01  2.040816e-02  1.607413e+00 
 6.734694e-01  2.040816e-02  1.623494e+00 
 6.938776e-01  2.040816e-02  1.639315e+00 
 7.142857e-01  2.040816e-02  1.654870e+00 
 7.346939e-01  2.040816e-02  1.670152e+00 
 7.551020e-01  2.040816e-02  1.685155e+00 
 7.755102e-01  2.040816e-02  1.699873e+00 
 7.959184e-01  2.040816e-02  1.714298e+00 
 8.163265e-01  2.040816e-02  1.728427e+00 
 8.367347e-01  2.040816e-02  1.742252e+00 
 8.571429e-01  2.040816e-02  1.755767e+00 
 8.775510e-01  2.040816e-02  1.768968e+00 
 8.979592e-01  2.040816e-02  1.781849e+00 
 9.183673e-01  2.040816e-02  1.794403e+00 
 9.387755e-01  2.040816e-02  1.806627e+00 
 9.591837e-01  2.040816e-02  1.818515e+00 
 9.795918e-01  2.040816e-02  1.830062e+00 
 1.000000e+00  2.040816e-02  1.841263e+00 
 0.000000e+00  4.081633e-02  9.991671e-01 
 2.040816e-02  4.081633e-02  1.019574e+00 
 4.081633e-02  4.081633e-02  1.039972e+00 
 6.122449e-02  4.081633e-02  1.060354e+00 
 8.163265e-02  4.081633e-02  1.080709e+00 
 1.020408e-01  4.081633e-02  1.101031e+00 
 1.224490e-01  4.081633e-02  1.121311e+00 
 1.428571e-01  4.081633e-02  1.141539e+00 
 1.632653e-01  4.081633e-02  1.161708e+00 
 1.836735e-01  4.081633e-02  1.181810e+00 
 2.040816e-01  4.081633e-02  1.201835e+00 
 2.244898e-01  4.081633e-02  1.221777e+00 
 2.448980e-01  4.081633e-02  1.241625e+00 
 2.653061e-01  4.081633e-02  1.261372e+00 
 2.857143e-01  4.081633e-02  1.281010e+00 
 3.061224e-01  4.081633e-02  1.300531e+00 
 3.265306e-01  4.081633e-02  1.319927e+00 
 3.469388e-01  4.081633e-02  1.339188e+00 
 3.673469e-01  4.081633e-02  1.358308e+00 
 3.877551e-01  4.081633e-02  1.377279e+00 
 4.081633e-01  4.081633e-02  1.396092e+00 
 4.285714e-01  4.081633e-02  1.414740e+00 
 4.489796e-01  4.081633e-02  1.433214e+00 
 4.693878e-01  4.081633e-02  1.451508e+00 
 4.897959e-01  4.081633e-02  1.469614e+00 
 5.102041e-01  4.081633e-02  1.487523e+00 
 5.306122e-01  4.081633e-02  1.505229e+00 
 5.510204e-01  4.081633e-02  1.522725e+00 
 5.714286e-01  4.081633e-02  1.540002e+00 
 5.918367e-01  4.081633e-02  1.557054e+00 
 6.122449e-01  4.081633e-02  1.573874e+00 
 6.326531e-01  4.081633e-02  1.590454e+00 
 6.530612e-01  4.081633e-02  1.606788e+00 
 6.734694e-01  4.081633e-02  1.622869e+00 
 6.938776e-01  4.081633e-02  1.638691e+00 
 7.142857e-01  4.081633e-02  1.654246e+00 
 7.346939e-01  4.081633e-02  1.669528e+00 
 7.551020e-01  4.081633e-02  1.684531e+00 
 7.755102e-01  4.081633e-02  1.699248e+00 
 7.959184e-01  4.081633e-02  1.713674e+00 
 8.163265e-01  4.081633e-02  1.727802e+00 
 8.367347e-01  4.081633e-02  1.741627e+00 
 8.571429e-01  4.081633e-02  1.755143e+00 
 8.775510e-01  4.081633e-02  1.768344e+00 
 8.979592e-01  4.081633e-02  1.781224e+00 
 9.183673e-01  4.081633e-02  1.793779e+00 
 9.387755e-01  4.081633e-02  1.806003e+00 
 9.591837e-01  4.081633e-02  1.817890e+00 
 9.795918e-01  4.081633e-02  1.829437e+00 
 1.000000e+00  4.081633e-02  1.840638e+00 
 0.000000e+00  6.122449e-02  9.981264e-01 
 2.040816e-02  6.122449e-02  1.018533e+00 
 4.081633e-02  6.122449e-02  1.038932e+00 
 6.122449e-02  6.122449e-02  1.059313e+00 
 8.163265e-02  6.122449e-02  1.079669e+00 
 1.020408e-01  6.122449e-02  1.099991e+00 
 1.224490e-01  6.122449e-02  1.120270e+00 
 1.428571e-01  6.122449e-02  1.140499e+00 
 1.632653e-01  6.122449e-02  1.160668e+00 
 1.836735e-01  6.122449e-02  1.180769e+00 
 2.040816e-01  6.122449e-02  1.200795e+00 
 2.244898e-01  6.122449e-02  1.220736e+00 
 2.448980e-01  6.122449e-02  1.240584e+00 
 2.653061e-01  6.122449e-02  1.260332e+00 
 2.857143e-01  6.122449e-02  1.279970e+00 
 3.061224e-01  6.122449e-02  1.299491e+00 
 3.265306e-01  6.122449e-02  1.318886e+00 
 3.469388e-01  6.122449e-02  1.338148e+00 
 3.673469e-01  6.122449e-02  1.357268e+00 
 3.877551e-01  6.122449e-02  1.376238e+00 
 4.081633e-01  6.122449e-02  1.395051e+00 
 4.285714e-01  6.122449e-02  1.413699e+00 
 4.489796e-01  6.122449e-02  1.432174e+00 
 4.693878e-01  6.122449e-02  1.450468e+00 
 4.897959e-01  6.122449e-02  1.468573e+00 
 5.102041e-01  6.122449e-02  1.486483e+00 
 5.306122e-01  6.122449e-02  1.504189e+00 
 5.510204e-01  6.122449e-02  1.521684e+00 
 5.714286e-01  6.122449e-02  1.538962e+00 
 5.918367e-01  6.122449e-02  1.556014e+00 
 6.122449e-01  6.122449e-02  1.572833e+00 
 6.326531e-01  6.122449e-02  1.589414e+00 
 6.530612e-01  6.122449e-02  1.605748e+00 
 6.734694e-01  6.122449e-02  1.621829e+00 
 6.938776e-01  6.122449e-02  1.637650e+00 
 7.142857e-01  6.122449e-02  1.653205e+00 
 7.346939e-01  6.122449e-02  1.668487e+00 
 7.551020e-01  6.122449e-02  1.683490e+00 
 7.755102e-01  6.122449e-02  1.698208e+00 
 7.959184e-01  6.122449e-02  1.712634e+00 
 8.163265e-01  6.122449e-02  1.726762e+00 
 8.367347e-01  6.122449e-02  1.740587e+00 
 8.571429e-01  6.122449e-02  1.754102e+00 
 8.775510e-01  6.122449e-02  1.767303e+00 
 8.979592e-01  6.122449e-02  1.780184e+00 
 9.183673e-01  6.122449e-02  1.792738e+00 
 9.387755e-01  6.122449e-02  1.804962e+00 
 9.591837e-01  6.122449e-02  1.816850e+00 
 9.795918e-01  6.122449e-02  1.828396e+00 
 1.000000e+00  6.122449e-02  1.839597e+00 
 0.000000e+00  8.163265e-02  9.966699e-01 
 2.040816e-02  8.163265e-02  1.017077e+00 
 4.081633e-02  8.163265e-02  1.037475e+00 
 6.122449e-02  8.163265e-02  1.057856e+00 
 8.163265e-02  8.163265e-02  1.078212e+00 
 1.020408e-01  8.163265e-02  1.098534e+00 
 1.224490e-01  8.163265e-02  1.118814e+00 
 1.428571e-01  8.163265e-02  1.139042e+00 
 1.632653e-01  8.163265e-02  1.159212e+00 
 1.836735e-01  8.163265e-02  1.179313e+00 
 2.040816e-01  8.163265e-02  1.199339e+00 
 2.244898e-01  8.163265e-02  1.219280e+00 
 2.448980e-01  8.163265e-02  1.239128e+00 
 2.653061e-01  8.163265e-02  1.258876e+00 
 2.857143e-01  8.163265e-02  1.278514e+00 
 3.061224e-01  8.163265e-02  1.298035e+00 
 3.265306e-01  8.163265e-02  1.317430e+00 
 3.469388e-01  8.163265e-02  1.336692e+00 
 3.673469e-01  8.163265e-02  1.355812e+00 
 3.877551e-01  8.163265e-02  1.374782e+00 
 4.081633e-01  8.163265e-02  1.393595e+00 
 4.285714e-01  8.163265e-02  1.412243e+00 
 4.489796e-01  8.163265e-02  1.430718e+00 
 4.693878e-01  8.163265e-02  1.449011e+00 
 4.897959e-01  8.163265e-02  1.467117e+00 
 5.102041e-01  8.163265e-02  1.485026e+00 
 5.306122e-01  8.163265e-02  1.502733e+00 
 5.510204e-01  8.163265e-02  1.520228e+00 
 5.714286e-01  8.163265e-02  1.537505e+00 
 5.918367e-01  8.163265e-02  1.554557e+00 
 6.122449e-01  8.163265e-02  1.571377e+00 
 6.326531e-01  8.163265e-02  1.587958e+00 
 6.530612e-01  8.163265e-02  1.604292e+00 
 6.734694e-01  8.163265e-02  1.620373e+00 
 6.938776e-01  8.163265e-02  1.636194e+00 
 7.142857e-01  8.163265e-02  1.651749e+00 
 7.346939e-01  8.163265e-02  1.667031e+00 
 7.551020e-01  8.163265e-02  1.682034e+00 
 7.755102e-01  8.163265e-02  1.696751e+00 
 7.959184e-01  8.163265e-02  1.711177e+00 
 8.163265e-01  8.163265e-02  1.725306e+00 
 8.367347e-01  8.163265e-02  1.739130e+00 
 8.571429e-01  8.163265e-02  1.752646e+00 
 8.775510e-01  8.163265e-02  1.765847e+00 
 8.979592e-01  8.163265e-02  1.778727e+00 
 9.183673e-01  8.163265e-02  1.791282e+00 
 9.387755e-01  8.163265e-02  1.803506e+00 
 9.591837e-01  8.163265e-02  1.815393e+00 
 9.795918e-01  8.163265e-02  1.826940e+00 
 1.000000e+00  8.163265e-02  1.838141e+00 
 0.000000e+00  1.020408e-01  9.947984e-01 
 2.040816e-02  1.020408e-01  1.015205e+00 
 4.081633e-02  1.020408e-01  1.035604e+00 
 6.122449e-02  1.020408e-01  1.055985e+00 
 8.163265e-02  1.020408e-01  1.076341e+00 
 1.020408e-01  1.020408e-01  1.096663e+00 
 1.224490e-01  1.020408e-01  1.116942e+00 
 1.428571e-01  1.020408e-01  1.137171e+00 
 1.632653e-01  1.020408e-01  1.157340e+00 
 1.836735e-01  1.020408e-01  1.177442e+00 
 2.040816e-01  1.020408e-01  1.197467e+00 
 2.244898e-01  1.020408e-01  1.217408e+00 
 2.448980e-01  1.020408e-01  1.237257e+00 
 2.653061e-01  1.020408e-01  1.257004e+00 
 2.857143e-01  1.020408e-01  1.276642e+00 
 3.061224e-01  1.020408e-01  1.296163e+00 
 3.265306e-01  1.020408e-01  1.315558e+00 
 3.469388e-01  1.020408e-01  1.334820e+00 
 3.673469e-01  1.020408e-01  1.353940e+00 
 3.877551e-01  1.020408e-01  1.372911e+00 
 4.081633e-01  1.020408e-01  1.391724e+00 
 4.285714e-01  1.020408e-01  1.410372e+00 
 4.489796e-01  1.020408e-01  1.428846e+00 
 4.693878e-01  1.020408e-01  1.447140e+00 
 4.897959e-01  1.020408e-01  1.465246e+00 
 5.102041e-01  1.020408e-01  1.483155e+00 
 5.306122e-01  1.020408e-01  1.500861e+00 
 5.510204e-01  1.020408e-01  1.518357e+00 
 5.714286e-01  1.020408e-01  1.535634e+00 
 5.918367e-01  1.020408e-01  1.552686e+00 
 6.122449e-01  1.020408e-01  1.569506e+00 
 6.326531e-01  1.020408e-01  1.586086e+00 
 6.530612e-01  1.020408e-01  1.602420e+00 
 6.734694e-01  1.020408e-01  1.618501e+00 
 6.938776e-01  1.020408e-01  1.634323e+00 
 7.142857e-01  1.020408e-01  1.649878e+00 
 7.346939e-01  1.020408e-01  1.665160e+00 
 7.551020e-01  1.020408e-01  1.680163e+00 
 7.755102e-01  1.020408e-01  1.694880e+00 
 7.959184e-01  1.020408e-01  1.709306e+00 
 8.163265e-01  1.020408e-01  1.723434e+00 
 8.367347e-01  1.020408e-01  1.737259e+00 
 8.571429e-01  1.020408e-01  1.750775e+00 
 8.775510e-01  1.020408e-01  1.763975e+00 
 8.979592e-01  1.020408e-01  1.776856e+00 
 9.183673e-01  1.020408e-01  1.789410e+00 
 9.387755e-01  1.020408e-01  1.801634e+00 
 9.591837e-01  1.020408e-01  1.813522e+00 
 9.795918e-01  1.020408e-01  1.825068e+00 
 1.000000e+00  1.020408e-01  1.836269e+00 
 0.000000e+00  1.224490e-01  9.925125e-01 
 2.040816e-02  1.224490e-01  1.012919e+00 
 4.081633e-02  1.224490e-01  1.033318e+00 
 6.122449e-02  1.224490e-01  1.053699e+00 
 8.163265e-02  1.224490e-01  1.074055e+00 
 1.020408e-01  1.224490e-01  1.094377e+00 
 1.224490e-01  1.224490e-01  1.114656e+00 
 1.428571e-01  1.224490e-01  1.134885e+00 
 1.632653e-01  1.224490e-01  1.155054e+00 
 1.836735e-01  1.224490e-01  1.175156e+00 
 2.040816e-01  1.224490e-01  1.195181e+00 
 2.244898e-01  1.224490e-01  1.215123e+00 
 2.448980e-01  1.224490e-01  1.234971e+00 
 2.653061e-01  1.224490e-01  1.254718e+00 
 2.857143e-01  1.224490e-01  1.274357e+00 
 3.061224e-01  1.224490e-01  1.293877e+00 
 3.265306e-01  1.224490e-01  1.313273e+00 
 3.469388e-01  1.224490e-01  1.332535e+00 
 3.673469e-01  1.224490e-01  1.351655e+00 
 3.877551e-01  1.224490e-01  1.370625e+00 
 4.081633e-01  1.224490e-01  1.389438e+00 
 4.285714e-01  1.224490e-01  1.408086e+00 
 4.489796e-01  1.224490e-01  1.426561e+00 
 4.693878e-01  1.224490e-01  1.444854e+00 
 4.897959e-01  1.224490e-01  1.462960e+00 
 5.102041e-01  1.224490e-01  1.480870e+00 
 5.306122e-01  1.224490e-01  1.498576e+00 
 5.510204e-01  1.224490e-01  1.516071e+00 
 5.714286e-01  1.224490e-01  1.533348e+00 
 5.918367e-01  1.224490e-01  1.550400e+00 
 6.122449e-01  1.224490e-01  1.567220e+00 
 6.326531e-01  1.224490e-01  1.583801e+00 
 6.530612e-01  1.224490e-01  1.600135e+00 
 6.734694e-01  1.224490e-01  1.616216e+00 
 6.938776e-01  1.224490e-01  1.632037e+00 
 7.142857e-01  1.224490e-01  1.647592e+00 
 7.346939e-01  1.224490e-01  1.662874e+00 
 7.551020e-01  1.224490e-01  1.677877e+00 
 7.755102e-01  1.224490e-01  1.692594e+00 
 7.959184e-01  1.224490e-01  1.707020e+00 
 8.163265e-01  1.224490e-01  1.721149e+00 
 8.367347e-01  1.224490e-01  1.734973e+00 
 8.571429e-01  1.224490e-01  1.748489e+00 
 8.775510e-01  1.224490e-01  1.761690e+00 
 8.979592e-01  1.224490e-01  1.774570e+00 
 9.183673e-01  1.224490e-01  1.787125e+00 
 9.387755e-01  1.224490e-01  1.799348e+00 
 9.591837e-01  1.224490e-01  1.811236e+00 
 9.795918e-01  1.224490e-01  1.822783e+00 
 1.000000e+00  1.224490e-01  1.833983e+00 
 0.000000e+00  1.428571e-01  9.898133e-01 
 2.040816e-02  1.428571e-01  1.010220e+00 
 4.081633e-02  1.428571e-01  1.030619e+00 
 6.122449e-02  1.428571e-01  1.051000e+00 
 8.163265e-02  1.428571e-01  1.071356e+00 
 1.020408e-01  1.428571e-01  1.091678e+00 
 1.224490e-01  1.428571e-01  1.111957e+00 
 1.428571e-01  1.428571e-01  1.132186e+00 
 1.632653e-01  1.428571e-01  1.152355e+00 
 1.836735e-01  1.428571e-01  1.172457e+00 
 2.040816e-01  1.428571e-01  1.192482e+00 
 2.244898e-01  1.428571e-01  1.212424e+00 
 2.448980e-01  1.428571e-01  1.232272e+00 
 2.653061e-01  1.428571e-01  1.252019e+00 
 2.857143e-01  1.428571e-01  1.271658e+00 
 3.061224e-01  1.428571e-01  1.291178e+00 
 3.265306e-01  1.428571e-01  1.310574e+00 
 3.469388e-01  1.428571e-01  1.329835e+00 
 3.673469e-01  1.428571e-01  1.348956e+00 
 3.877551e-01  1.428571e-01  1.367926e+00 
 4.081633e-01  1.428571e-01  1.386739e+00 
 4.285714e-01  1.428571e-01  1.405387e+00 
 4.489796e-01  1.428571e-01  1.423862e+00 
 4.693878e-01  1.428571e-01  1.442155e+00 
 4.897959e-01  1.428571e-01  1.460261e+00 
 5.102041e-01  1.428571e-01  1.478171e+00 
 5.306122e-01  1.428571e-01  1.495877e+00 
 5.510204e-01  1.428571e-01  1.513372e+00 
 5.714286e-01  1.428571e-01  1.530649e+00 
 5.918367e-01  1.428571e-01  1.547701e+00 
 6.122449e-01  1.428571e-01  1.564521e+00 
 6.326531e-01  1.428571e-01  1.581102e+00 
 6.530612e-01  1.428571e-01  1.597436e+00 
 6.734694e-01  1.428571e-01  1.613517e+00 
 6.938776e-01  1.428571e-01  1.629338e+00 
 7.142857e-01  1.428571e-01  1.644893e+00 
 7.346939e-01  1.428571e-01  1.660175e+00 
 7.551020e-01  1.428571e-01  1.675178e+00 
 7.755102e-01  1.428571e-01  1.689895e+00 
 7.959184e-01  1.428571e-01  1.704321e+00 
 8.163265e-01  1.428571e-01  1.718449e+00 
 8.367347e-01  1.428571e-01  1.732274e+00 
 8.571429e-01  1.428571e-01  1.745790e+00 
 8.775510e-01  1.428571e-01  1.758991e+00 
 8.979592e-01  1.428571e-01  1.771871e+00 
 9.183673e-01  1.428571e-01  1.784426e+00 
 9.387755e-01  1.428571e-01  1.796649e+00 
 9.591837e-01  1.428571e-01  1.808537e+00 
 9.795918e-01  1.428571e-01  1.820083e+00 
 1.000000e+00  1.428571e-01  1.831284e+00 
 0.000000e+00  1.632653e-01  9.867018e-01 
 2.040816e-02  1.632653e-01  1.007109e+00 
 4.081633e-02  1.632653e-01  1.027507e+00 
 6.122449e-02  1.632653e-01  1.047889e+00 
 8.163265e-02  1.632653e-01  1.068244e+00 
 1.020408e-01  1.632653e-01  1.088566e+00 
 1.224490e-01  1.632653e-01  1.108846e+00 
 1.428571e-01  1.632653e-01  1.129075e+00 
 1.632653e-01  1.632653e-01  1.149244e+00 
 1.836735e-01  1.632653e-01  1.169346e+00 
 2.040816e-01  1.632653e-01  1.189371e+00 
 2.244898e-01  1.632653e-01  1.209312e+00 
 2.448980e-01  1.632653e-01  1.229161e+00 
 2.653061e-01  1.632653e-01  1.248908e+00 
 2.857143e-01  1.632653e-01  1.268546e+00 
 3.061224e-01  1.632653e-01  1.288067e+00 
 3.265306e-01  1.632653e-01  1.307462e+00 
 3.469388e-01  1.632653e-01  1.326724e+00 
 3.673469e-01  1.632653e-01  1.345844e+00 
 3.877551e-01  1.632653e-01  1.364815e+00 
 4.081633e-01  1.632653e-01  1.383628e+00 
 4.285714e-01  1.632653e-01  1.402276e+00 
 4.489796e-01  1.632653e-01  1.420750e+00 
 4.693878e-01  1.632653e-01  1.439044e+00 
 4.897959e-01  1.632653e-01  1.457150e+00 
 5.102041e-01  1.632653e-01  1.475059e+00 
 5.306122e-01  1.632653e-01  1.492765e+00 
 5.510204e-01  1.632653e-01  1.510261e+00 
 5.714286e-01  1.632653e-01  1.527538e+00 
 5.918367e-01  1.632653e-01  1.544590e+00 
 6.122449e-01  1.632653e-01  1.561410e+00 
 6.326531e-01  1.632653e-01  1.577990e+00 
 6.530612e-01  1.632653e-01  1.594324e+00 
 6.734694e-01  1.632653e-01  1.610405e+00 
 6.938776e-01  1.632653e-01  1.626227e+00 
 7.142857e-01  1.632653e-01  1.641782e+00 
 7.346939e-01  1.632653e-01  1.657064e+00 
 7.551020e-01  1.632653e-01  1.672067e+00 
 7.755102e-01  1.632653e-01  1.686784e+00 
 7.959184e-01  1.632653e-01  1.701210e+00 
 8.163265e-01  1.632653e-01  1.715338e+00 
 8.367347e-01  1.632653e-01  1.729163e+00 
 8.571429e-01  1.632653e-01  1.742678e+00 
 8.775510e-01  1.632653e-01  1.755879e+00 
 8.979592e-01  1.632653e-01  1.768760e+00 
 9.183673e-01  1.632653e-01  1.781314e+00 
 9.387755e-01  1.632653e-01  1.793538e+00 
 9.591837e-01  1.632653e-01  1.805425e+00 
 9.795918e-01  1.632653e-01  1.816972e+00 
 1.000000e+00  1.632653e-01  1.828173e+00 
 0.000000e+00  1.836735e-01  9.831794e-01 
 2.040816e-02  1.836735e-01  1.003586e+00 
 4.081633e-02  1.836735e-01  1.023985e+00 
 6.122449e-02  1.836735e-01  1.044366e+00 
 8.163265e-02  1.836735e-01  1.064722e+00 
 1.020408e-01  1.836735e-01  1.085044e+00 
 1.224490e-01  1.836735e-01  1.105324e+00 
 1.428571e-01  1.836735e-01  1.125552e+00 
 1.632653e-01  1.836735e-01  1.145722e+00 
 1.836735e-01  1.836735e-01  1.165823e+00 
 2.040816e-01  1.836735e-01  1.185849e+00 
 2.244898e-01  1.836735e-01  1.205790e+00 
 2.448980e-01  1.836735e-01  1.225638e+00 
 2.653061e-01  1.836735e-01  1.245386e+00 
 2.857143e-01  1.836735e-01  1.265024e+00 
 3.061224e-01  1.836735e-01  1.284545e+00 
 3.265306e-01  1.836735e-01  1.303940e+00 
 3.469388e-01  1.836735e-01  1.323202e+00 
 3.673469e-01  1.836735e-01  1.342322e+00 
 3.877551e-01  1.836735e-01  1.361293e+00 
 4.081633e-01  1.836735e-01  1.380106e+00 
 4.285714e-01  1.836735e-01  1.398753e+00 
 4.489796e-01  1.836735e-01  1.417228e+00 
 4.693878e-01  1.836735e-01  1.435522e+00 
 4.897959e-01  1.836735e-01  1.453627e+00 
 5.102041e-01  1.836735e-01  1.471537e+00 
 5.306122e-01  1.836735e-01  1.489243e+00 
 5.510204e-01  1.836735e-01  1.506739e+00 
 5.714286e-01  1.836735e-01  1.524016e+00 
 5.918367e-01  1.836735e-01  1.541068e+00 
 6.122449e-01  1.836735e-01  1.557888e+00 
 6.326531e-01  1.836735e-01  1.574468e+00 
 6.530612e-01  1.836735e-01  1.590802e+00 
 6.734694e-01  1.836735e-01  1.606883e+00 
 6.938776e-01  1.836735e-01  1.622704e+00 
 7.142857e-01  1.836735e-01  1.638259e+00 
 7.346939e-01  1.836735e-01  1.653541e+00 
 7.551020e-01  1.836735e-01  1.668544e+00 
 7.755102e-01  1.836735e-01  1.683262e+00 
 7.959184e-01  1.836735e-01  1.697688e+00 
 8.163265e-01  1.836735e-01  1.711816e+00 
 8.367347e-01  1.836735e-01  1.725641e+00 
 8.571429e-01  1.836735e-01  1.739156e+00 
 8.775510e-01  1.836735e-01  1.752357e+00 
 8.979592e-01  1.836735e-01  1.765237e+00 
 9.183673e-01  1.836735e-01  1.777792e+00 
 9.387755e-01  1.836735e-01  1.790015e+00 
 9.591837e-01  1.836735e-01  1.801903e+00 
 9.795918e-01  1.836735e-01  1.813450e+00 
 1.000000e+00  1.836735e-01  1.824650e+00 
 0.000000e+00  2.040816e-01  9.792475e-01 
 2.040816e-02  2.040816e-01  9.996545e-01 
 4.081633e-02  2.040816e-01  1.020053e+00 
 6.122449e-02  2.040816e-01  1.040434e+00 
 8.163265e-02  2.040816e-01  1.060790e+00 
 1.020408e-01  2.040816e-01  1.081112e+00 
 1.224490e-01  2.040816e-01  1.101392e+00 
 1.428571e-01  2.040816e-01  1.121620e+00 
 1.632653e-01  2.040816e-01  1.141790e+00 
 1.836735e-01  2.040816e-01  1.161891e+00 
 2.040816e-01  2.040816e-01  1.181917e+00 
 2.244898e-01  2.040816e-01  1.201858e+00 
 2.448980e-01  2.040816e-01  1.221707e+00 
 2.653061e-01  2.040816e-01  1.241454e+00 
 2.857143e-01  2.040816e-01  1.261092e+00 
 3.061224e-01  2.040816e-01  1.280613e+00 
 3.265306e-01  2.040816e-01  1.300008e+00 
 3.469388e-01  2.040816e-01  1.319270e+00 
 3.673469e-01  2.040816e-01  1.338390e+00 
 3.877551e-01  2.040816e-01  1.357361e+00 
 4.081633e-01  2.040816e-01  1.376174e+00 
 4.285714e-01  2.040816e-01  1.394822e+00 
 4.489796e-01  2.040816e-01  1.413296e+00 
 4.693878e-01  2.040816e-01  1.431590e+00 
 4.897959e-01  2.040816e-01  1.449696e+00 
 5.102041e-01  2.040816e-01  1.467605e+00 
 5.306122e-01  2.040816e-01  1.485311e+00 
 5.510204e-01  2.040816e-01  1.502807e+00 
 5.714286e-01  2.040816e-01  1.520084e+00 
 5.918367e-01  2.040816e-01  1.537136e+00 
 6.122449e-01  2.040816e-01  1.553956e+00 
 6.326531e-01  2.040816e-01  1.570536e+00 
 6.530612e-01  2.040816e-01  1.586870e+00 
 6.734694e-01  2.040816e-01  1.602951e+00 
 6.938776e-01  2.040816e-01  1.618773e+00 
 7.142857e-01  2.040816e-01  1.634328e+00 
 7.346939e-01  2.040816e-01  1.649610e+00 
 7.551020e-01  2.040816e-01  1.664613e+00 
 7.755102e-01  2.040816e-01  1.679330e+00 
 7.959184e-01  2.040816e-01  1.693756e+00 
 8.163265e-01  2.040816e-01  1.707884e+00 
 8.367347e-01  2.040816e-01  1.721709e+00 
 8.571429e-01  2.040816e-01  1.735224e+00 
 8.775510e-01  2.040816e-01  1.748425e+00 
 8.979592e-01  2.040816e-01  1.761305e+00 
 9.183673e-01  2.040816e-01  1.773860e+00 
 9.387755e-01  2.040816e-01  1.786084e+00 
 9.591837e-01  2.040816e-01  1.797971e+00 
 9.795918e-01  2.040816e-01  1.809518e+00 
 1.000000e+00  2.040816e-01  1.820719e+00 
 0.000000e+00  2.244898e-01  9.749078e-01 
 2.040816e-02  2.244898e-01  9.953148e-01 
 4.081633e-02  2.244898e-01  1.015713e+00 
 6.122449e-02  2.244898e-01  1.036095e+00 
 8.163265e-02  2.244898e-01  1.056451e+00 
 1.020408e-01  2.244898e-01  1.076773e+00 
 1.224490e-01  2.244898e-01  1.097052e+00 
 1.428571e-01  2.244898e-01  1.117281e+00 
 1.632653e-01  2.244898e-01  1.137450e+00 
 1.836735e-01  2.244898e-01  1.157552e+00 
 2.040816e-01  2.244898e-01  1.177577e+00 
 2.244898e-01  2.244898e-01  1.197519e+00 
 2.448980e-01  2.244898e-01  1.217367e+00 
 2.653061e-01  2.244898e-01  1.237114e+00 
 2.857143e-01  2.244898e-01  1.256753e+00 
 3.061224e-01  2.244898e-01  1.276274e+00 
 3.265306e-01  2.244898e-01  1.295669e+00 
 3.469388e-01  2.244898e-01  1.314931e+00 
 3.673469e-01  2.244898e-01  1.334051e+00 
 3.877551e-01  2.244898e-01  1.353021e+00 
 4.081633e-01  2.244898e-01  1.371834e+00 
 4.285714e-01  2.244898e-01  1.390482e+00 
 4.489796e-01  2.244898e-01  1.408957e+00 
 4.693878e-01  2.244898e-01  1.427251e+00 
 4.897959e-01  2.244898e-01  1.445356e+00 
 5.102041e-01  2.244898e-01  1.463266e+00 
 5.306122e-01  2.244898e-01  1.480972e+00 
 5.510204e-01  2.244898e-01  1.498467e+00 
 5.714286e-01  2.244898e-01  1.515745e+00 
 5.918367e-01  2.244898e-01  1.532797e+00 
 6.122449e-01  2.244898e-01  1.549616e+00 
 6.326531e-01  2.244898e-01  1.566197e+00 
 6.530612e-01  2.244898e-01  1.582531e+00 
 6.734694e-01  2.244898e-01  1.598612e+00 
 6.938776e-01  2.244898e-01  1.614433e+00 
 7.142857e-01  2.244898e-01  1.629988e+00 
 7.346939e-01  2.244898e-01  1.645270e+00 
 7.551020e-01  2.244898e-01  1.660273e+00 
 7.755102e-01  2.244898e-01  1.674990e+00 
 7.959184e-01  2.244898e-01  1.689416e+00 
 8.163265e-01  2.244898e-01  1.703544e+00 
 8.367347e-01  2.244898e-01  1.717369e+00 
 8.571429e-01  2.244898e-01  1.730885e+00 
 8.775510e-01  2.244898e-01  1.744085e+00 
 8.979592e-01  2.244898e-01  1.756966e+00 
 9.183673e-01  2.244898e-01  1.769520e+00 
 9.387755e-01  2.244898e-01  1.781744e+00 
 9.591837e-01  2.244898e-01  1.793631e+00 
 9.795918e-01  2.244898e-01  1.805178e+00 
 1.000000e+00  2.244898e-01  1.816379e+00 
 0.000000e+00  2.448980e-01  9.701621e-01 
 2.040816e-02  2.448980e-01  9.905690e-01 
 4.081633e-02  2.448980e-01  1.010967e+00 
 6.122449e-02  2.448980e-01  1.031349e+00 
 8.163265e-02  2.448980e-01  1.051705e+00 
 1.020408e-01  2.448980e-01  1.072027e+00 
 1.224490e-01  2.448980e-01  1.092306e+00 
 1.428571e-01  2.448980e-01  1.112535e+00 
 1.632653e-01  2.448980e-01  1.132704e+00 
 1.836735e-01  2.448980e-01  1.152806e+00 
 2.040816e-01  2.448980e-01  1.172832e+00 
 2.244898e-01  2.448980e-01  1.192773e+00 
 2.448980e-01  2.448980e-01  1.212621e+00 
 2.653061e-01  2.448980e-01  1.232369e+00 
 2.857143e-01  2.448980e-01  1.252007e+00 
 3.061224e-01  2.448980e-01  1.271528e+00 
 3.265306e-01  2.448980e-01  1.290923e+00 
 3.469388e-01  2.448980e-01  1.310185e+00 
 3.673469e-01  2.448980e-01  1.329305e+00 
 3.877551e-01  2.448980e-01  1.348276e+00 
 4.081633e-01  2.448980e-01  1.367089e+00 
 4.285714e-01  2.448980e-01  1.385737e+00 
 4.489796e-01  2.448980e-01  1.404211e+00 
 4.693878e-01  2.448980e-01  1.422505e+00 
 4.897959e-01  2.448980e-01  1.440611e+00 
 5.102041e-01  2.448980e-01  1.458520e+00 
 5.306122e-01  2.448980e-01  1.476226e+00 
 5.510204e-01  2.448980e-01  1.493722e+00 
 5.714286e-01  2.448980e-01  1.510999e+00 
 5.918367e-01  2.448980e-01  1.528051e+00 
 6.122449e-01  2.448980e-01  1.544871e+00 
 6.326531e-01  2.448980e-01  1.561451e+00 
 6.530612e-01  2.448980e-01  1.577785e+00 
 6.734694e-01  2.448980e-01  1.593866e+00 
 6.938776e-01  2.448980e-01  1.609688e+00 
 7.142857e-01  2.448980e-01  1.625242e+00 
 7.346939e-01  2.448980e-01  1.640524e+00 
 7.551020e-01  2.448980e-01  1.655527e+00 
 7.755102e-01  2.448980e-01  1.670245e+00 
 7.959184e-01  2.448980e-01  1.684671e+00 
 8.163265e-01  2.448980e-01  1.698799e+00 
 8.367347e-01  2.448980e-01  1.712624e+00 
 8.571429e-01  2.448980e-01  1.726139e+00 
 8.775510e-01  2.448980e-01  1.739340e+00 
 8.979592e-01  2.448980e-01  1.752220e+00 
 9.183673e-01  2.448980e-01  1.764775e+00 
 9.387755e-01  2.448980e-01  1.776998e+00 
 9.591837e-01  2.448980e-01  1.788886e+00 
 9.795918e-01  2.448980e-01  1.800432e+00 
 1.000000e+00  2.448980e-01  1.811633e+00 
 0.000000e+00  2.653061e-01  9.650123e-01 
 2.040816e-02  2.653061e-01  9.854193e-01 
 4.081633e-02  2.653061e-01  1.005818e+00 
 6.122449e-02  2.653061e-01  1.026199e+00 
 8.163265e-02  2.653061e-01  1.046555e+00 
 1.020408e-01  2.653061e-01  1.066877e+00 
 1.224490e-01  2.653061e-01  1.087157e+00 
 1.428571e-01  2.653061e-01  1.107385e+00 
 1.632653e-01  2.653061e-01  1.127555e+00 
 1.836735e-01  2.653061e-01  1.147656e+00 
 2.040816e-01  2.653061e-01  1.167682e+00 
 2.244898e-01  2.653061e-01  1.187623e+00 
 2.448980e-01  2.653061e-01  1.207472e+00 
 2.653061e-01  2.653061e-01  1.227219e+00 
 2.857143e-01  2.653061e-01  1.246857e+00 
 3.061224e-01  2.653061e-01  1.266378e+00 
 3.265306e-01  2.653061e-01  1.285774e+00 
 3.469388e-01  2.653061e-01  1.305035e+00 
 3.673469e-01  2.653061e-01  1.324155e+00 
 3.877551e-01  2.653061e-01  1.343126e+00 
 4.081633e-01  2.653061e-01  1.361939e+00 
 4.285714e-01  2.653061e-01  1.380587e+00 
 4.489796e-01  2.653061e-01  1.399062e+00 
 4.693878e-01  2.653061e-01  1.417355e+00 
 4.897959e-01  2.653061e-01  1.435461e+00 
 5.102041e-01  2.653061e-01  1.453370e+00 
 5.306122e-01  2.653061e-01  1.471077e+00 
 5.510204e-01  2.653061e-01  1.488572e+00 
 5.714286e-01  2.653061e-01  1.505849e+00 
 5.918367e-01  2.653061e-01  1.522901e+00 
 6.122449e-01  2.653061e-01  1.539721e+00 
 6.326531e-01  2.653061e-01  1.556302e+00 
 6.530612e-01  2.653061e-01  1.572636e+00 
 6.734694e-01  2.653061e-01  1.588717e+00 
 6.938776e-01  2.653061e-01  1.604538e+00 
 7.142857e-01  2.653061e-01  1.620093e+00 
 7.346939e-01  2.653061e-01  1.635375e+00 
 7.551020e-01  2.653061e-01  1.650378e+00 
 7.755102e-01  2.653061e-01  1.665095e+00 
 7.959184e-01  2.653061e-01  1.679521e+00 
 8.163265e-01  2.653061e-01  1.693649e+00 
 8.367347e-01  2.653061e-01  1.707474e+00 
 8.571429e-01  2.653061e-01  1.720989e+00 
 8.775510e-01  2.653061e-01  1.734190e+00 
 8.979592e-01  2.653061e-01  1.747070e+00 