 TITLE = 'Scalar'
 VARIABLES = 'X', 'Y' , 'Scalar'   
ZONE T = "Scalar zone", I = 21 , J = 21 , F = POINT 
-4.761905e-01  -4.761905e-01  0.000000e+00 
 -4.285714e-01  -4.761905e-01  0.000000e+00 
 -3.809524e-01  -4.761905e-01  0.000000e+00 
 -3.333333e-01  -4.761905e-01  0.000000e+00 
 -2.857143e-01  -4.761905e-01  0.000000e+00 
 -2.380952e-01  -4.761905e-01  0.000000e+00 
 -1.904762e-01  -4.761905e-01  0.000000e+00 
 -1.428571e-01  -4.761905e-01  1.347476e-38 
 -9.523810e-02  -4.761905e-01  5.933895e-08 
 -4.761905e-02  -4.761905e-01  1.811231e-05 
 0.000000e+00  -4.761905e-01  5.794029e-05 
 4.761905e-02  -4.761905e-01  1.811231e-05 
 9.523810e-02  -4.761905e-01  5.933895e-08 
 1.428571e-01  -4.761905e-01  1.347476e-38 
 1.904762e-01  -4.761905e-01  0.000000e+00 
 2.380952e-01  -4.761905e-01  0.000000e+00 
 2.857143e-01  -4.761905e-01  0.000000e+00 
 3.333333e-01  -4.761905e-01  0.000000e+00 
 3.809524e-01  -4.761905e-01  0.000000e+00 
 4.285714e-01  -4.761905e-01  0.000000e+00 
 4.761905e-01  -4.761905e-01  0.000000e+00 
 -4.761905e-01  -4.285714e-01  0.000000e+00 
 -4.285714e-01  -4.285714e-01  0.000000e+00 
 -3.809524e-01  -4.285714e-01  0.000000e+00 
 -3.333333e-01  -4.285714e-01  0.000000e+00 
 -2.857143e-01  -4.285714e-01  0.000000e+00 
 -2.380952e-01  -4.285714e-01  1.472939e-11 
 -1.904762e-01  -4.285714e-01  6.616627e-04 
 -1.428571e-01  -4.285714e-01  1.174363e-02 
 -9.523810e-02  -4.285714e-01  3.451585e-02 
 -4.761905e-02  -4.285714e-01  5.487733e-02 
 0.000000e+00  -4.285714e-01  6.271022e-02 
 4.761905e-02  -4.285714e-01  5.487733e-02 
 9.523810e-02  -4.285714e-01  3.451585e-02 
 1.428571e-01  -4.285714e-01  1.174363e-02 
 1.904762e-01  -4.285714e-01  6.616627e-04 
 2.380952e-01  -4.285714e-01  1.472939e-11 
 2.857143e-01  -4.285714e-01  0.000000e+00 
 3.333333e-01  -4.285714e-01  0.000000e+00 
 3.809524e-01  -4.285714e-01  0.000000e+00 
 4.285714e-01  -4.285714e-01  0.000000e+00 
 4.761905e-01  -4.285714e-01  0.000000e+00 
 -4.761905e-01  -3.809524e-01  0.000000e+00 
 -4.285714e-01  -3.809524e-01  0.000000e+00 
 -3.809524e-01  -3.809524e-01  0.000000e+00 
 -3.333333e-01  -3.809524e-01  0.000000e+00 
 -2.857143e-01  -3.809524e-01  5.794029e-05 
 -2.380952e-01  -3.809524e-01  1.517304e-02 
 -1.904762e-01  -3.809524e-01  7.103177e-02 
 -1.428571e-01  -3.809524e-01  1.408962e-01 
 -9.523810e-02  -3.809524e-01  1.999941e-01 
 -4.761905e-02  -3.809524e-01  2.377670e-01 
 0.000000e+00  -3.809524e-01  2.506284e-01 
 4.761905e-02  -3.809524e-01  2.377670e-01 
 9.523810e-02  -3.809524e-01  1.999941e-01 
 1.428571e-01  -3.809524e-01  1.408962e-01 
 1.904762e-01  -3.809524e-01  7.103177e-02 
 2.380952e-01  -3.809524e-01  1.517304e-02 
 2.857143e-01  -3.809524e-01  5.794029e-05 
 3.333333e-01  -3.809524e-01  0.000000e+00 
 3.809524e-01  -3.809524e-01  0.000000e+00 
 4.285714e-01  -3.809524e-01  0.000000e+00 
 4.761905e-01  -3.809524e-01  0.000000e+00 
 -4.761905e-01  -3.333333e-01  0.000000e+00 
 -4.285714e-01  -3.333333e-01  0.000000e+00 
 -3.809524e-01  -3.333333e-01  0.000000e+00 
 -3.333333e-01  -3.333333e-01  3.354626e-04 
 -2.857143e-01  -3.333333e-01  3.451585e-02 
 -2.380952e-01  -3.333333e-01  1.298495e-01 
 -1.904762e-01  -3.333333e-01  2.377670e-01 
 -1.428571e-01  -3.333333e-01  3.295432e-01 
 -9.523810e-02  -3.333333e-01  3.962285e-01 
 -4.761905e-02  -3.333333e-01  4.361036e-01 
 0.000000e+00  -3.333333e-01  4.493290e-01 
 4.761905e-02  -3.333333e-01  4.361036e-01 
 9.523810e-02  -3.333333e-01  3.962285e-01 
 1.428571e-01  -3.333333e-01  3.295432e-01 
 1.904762e-01  -3.333333e-01  2.377670e-01 
 2.380952e-01  -3.333333e-01  1.298495e-01 
 2.857143e-01  -3.333333e-01  3.451585e-02 
 3.333333e-01  -3.333333e-01  3.354626e-04 
 3.809524e-01  -3.333333e-01  0.000000e+00 
 4.285714e-01  -3.333333e-01  0.000000e+00 
 4.761905e-01  -3.333333e-01  0.000000e+00 
 -4.761905e-01  -2.857143e-01  0.000000e+00 
 -4.285714e-01  -2.857143e-01  0.000000e+00 
 -3.809524e-01  -2.857143e-01  5.794029e-05 
 -3.333333e-01  -2.857143e-01  3.451585e-02 
 -2.857143e-01  -2.857143e-01  1.522315e-01 
 -2.380952e-01  -2.857143e-01  2.897958e-01 
 -1.904762e-01  -2.857143e-01  4.095469e-01 
 -1.428571e-01  -2.857143e-01  5.017491e-01 
 -9.523810e-02  -2.857143e-01  5.658677e-01 
 -4.761905e-02  -2.857143e-01  6.034335e-01 
 0.000000e+00  -2.857143e-01  6.157905e-01 
 4.761905e-02  -2.857143e-01  6.034335e-01 
 9.523810e-02  -2.857143e-01  5.658677e-01 
 1.428571e-01  -2.857143e-01  5.017491e-01 
 1.904762e-01  -2.857143e-01  4.095469e-01 
 2.380952e-01  -2.857143e-01  2.897958e-01 
 2.857143e-01  -2.857143e-01  1.522315e-01 
 3.333333e-01  -2.857143e-01  3.451585e-02 
 3.809524e-01  -2.857143e-01  5.794029e-05 
 4.285714e-01  -2.857143e-01  0.000000e+00 
 4.761905e-01  -2.857143e-01  0.000000e+00 
 -4.761905e-01  -2.380952e-01  0.000000e+00 
 -4.285714e-01  -2.380952e-01  1.472939e-11 
 -3.809524e-01  -2.380952e-01  1.517304e-02 
 -3.333333e-01  -2.380952e-01  1.298495e-01 
 -2.857143e-01  -2.380952e-01  2.897958e-01 
 -2.380952e-01  -2.380952e-01  4.361036e-01 
 -1.904762e-01  -2.380952e-01  5.531878e-01 
 -1.428571e-01  -2.380952e-01  6.402467e-01 
 -9.523810e-02  -2.380952e-01  6.998263e-01 
 -4.761905e-02  -2.380952e-01  7.344706e-01 
 0.000000e+00  -2.380952e-01  7.458318e-01 
 4.761905e-02  -2.380952e-01  7.344706e-01 
 9.523810e-02  -2.380952e-01  6.998263e-01 
 1.428571e-01  -2.380952e-01  6.402467e-01 
 1.904762e-01  -2.380952e-01  5.531878e-01 
 2.380952e-01  -2.380952e-01  4.361036e-01 
 2.857143e-01  -2.380952e-01  2.897958e-01 
 3.333333e-01  -2.380952e-01  1.298495e-01 
 3.809524e-01  -2.380952e-01  1.517304e-02 
 4.285714e-01  -2.380952e-01  1.472939e-11 
 4.761905e-01  -2.380952e-01  0.000000e+00 
 -4.761905e-01  -1.904762e-01  0.000000e+00 
 -4.285714e-01  -1.904762e-01  6.616627e-04 
 -3.809524e-01  -1.904762e-01  7.103177e-02 
 -3.333333e-01  -1.904762e-01  2.377670e-01 
 -2.857143e-01  -1.904762e-01  4.095469e-01 
 -2.380952e-01  -1.904762e-01  5.531878e-01 
 -1.904762e-01  -1.904762e-01  6.643503e-01 
 -1.428571e-01  -1.904762e-01  7.458318e-01 
 -9.523810e-02  -1.904762e-01  8.012305e-01 
 -4.761905e-02  -1.904762e-01  8.333466e-01 
 0.000000e+00  -1.904762e-01  8.438662e-01 
 4.761905e-02  -1.904762e-01  8.333466e-01 
 9.523810e-02  -1.904762e-01  8.012305e-01 
 1.428571e-01  -1.904762e-01  7.458318e-01 
 1.904762e-01  -1.904762e-01  6.643503e-01 
 2.380952e-01  -1.904762e-01  5.531878e-01 
 2.857143e-01  -1.904762e-01  4.095469e-01 
 3.333333e-01  -1.904762e-01  2.377670e-01 
 3.809524e-01  -1.904762e-01  7.103177e-02 
 4.285714e-01  -1.904762e-01  6.616627e-04 
 4.761905e-01  -1.904762e-01  0.000000e+00 
 -4.761905e-01  -1.428571e-01  1.347476e-38 
 -4.285714e-01  -1.428571e-01  1.174363e-02 
 -3.809524e-01  -1.428571e-01  1.408962e-01 
 -3.333333e-01  -1.428571e-01  3.295432e-01 
 -2.857143e-01  -1.428571e-01  5.017491e-01 
 -2.380952e-01  -1.428571e-01  6.402467e-01 
 -1.904762e-01  -1.428571e-01  7.458318e-01 
 -1.428571e-01  -1.428571e-01  8.227343e-01 
 -9.523810e-02  -1.428571e-01  8.748734e-01 
 -4.761905e-02  -1.428571e-01  9.050631e-01 
 0.000000e+00  -1.428571e-01  9.149472e-01 
 4.761905e-02  -1.428571e-01  9.050631e-01 
 9.523810e-02  -1.428571e-01  8.748734e-01 
 1.428571e-01  -1.428571e-01  8.227343e-01 
 1.904762e-01  -1.428571e-01  7.458318e-01 
 2.380952e-01  -1.428571e-01  6.402467e-01 
 2.857143e-01  -1.428571e-01  5.017491e-01 
 3.333333e-01  -1.428571e-01  3.295432e-01 
 3.809524e-01  -1.428571e-01  1.408962e-01 
 4.285714e-01  -1.428571e-01  1.174363e-02 
 4.761905e-01  -1.428571e-01  1.347476e-38 
 -4.761905e-01  -9.523810e-02  5.933895e-08 
 -4.285714e-01  -9.523810e-02  3.451585e-02 
 -3.809524e-01  -9.523810e-02  1.999941e-01 
 -3.333333e-01  -9.523810e-02  3.962285e-01 
 -2.857143e-01  -9.523810e-02  5.658677e-01 
 -2.380952e-01  -9.523810e-02  6.998263e-01 
 -1.904762e-01  -9.523810e-02  8.012305e-01 
 -1.428571e-01  -9.523810e-02  8.748734e-01 
 -9.523810e-02  -9.523810e-02  9.247428e-01 
 -4.761905e-02  -9.523810e-02  9.536048e-01 
 0.000000e+00  -9.523810e-02  9.630528e-01 
 4.761905e-02  -9.523810e-02  9.536048e-01 
 9.523810e-02  -9.523810e-02  9.247428e-01 
 1.428571e-01  -9.523810e-02  8.748734e-01 
 1.904762e-01  -9.523810e-02  8.012305e-01 
 2.380952e-01  -9.523810e-02  6.998263e-01 
 2.857143e-01  -9.523810e-02  5.658677e-01 
 3.333333e-01  -9.523810e-02  3.962285e-01 
 3.809524e-01  -9.523810e-02  1.999941e-01 
 4.285714e-01  -9.523810e-02  3.451585e-02 
 4.761905e-01  -9.523810e-02  5.933895e-08 
 -4.761905e-01  -4.761905e-02  1.811231e-05 
 -4.285714e-01  -4.761905e-02  5.487733e-02 
 -3.809524e-01  -4.761905e-02  2.377670e-01 
 -3.333333e-01  -4.761905e-02  4.361036e-01 
 -2.857143e-01  -4.761905e-02  6.034335e-01 
 -2.380952e-01  -4.761905e-02  7.344706e-01 
 -1.904762e-01  -4.761905e-02  8.333466e-01 
 -1.428571e-01  -4.761905e-02  9.050631e-01 
 -9.523810e-02  -4.761905e-02  9.536048e-01 
 -4.761905e-02  -4.761905e-02  9.816939e-01 
 0.000000e+00  -4.761905e-02  9.908884e-01 
 4.761905e-02  -4.761905e-02  9.816939e-01 
 9.523810e-02  -4.761905e-02  9.536048e-01 
 1.428571e-01  -4.761905e-02  9.050631e-01 
 1.904762e-01  -4.761905e-02  8.333466e-01 
 2.380952e-01  -4.761905e-02  7.344706e-01 
 2.857143e-01  -4.761905e-02  6.034335e-01 
 3.333333e-01  -4.761905e-02  4.361036e-01 
 3.809524e-01  -4.761905e-02  2.377670e-01 
 4.285714e-01  -4.761905e-02  5.487733e-02 
 4.761905e-01  -4.761905e-02  1.811231e-05 
 -4.761905e-01  0.000000e+00  5.794029e-05 
 -4.285714e-01  0.000000e+00  6.271022e-02 
 -3.809524e-01  0.000000e+00  2.506284e-01 
 -3.333333e-01  0.000000e+00  4.493290e-01 
 -2.857143e-01  0.000000e+00  6.157905e-01 
 -2.380952e-01  0.000000e+00  7.458318e-01 
 -1.904762e-01  0.000000e+00  8.438662e-01 
 -1.428571e-01  0.000000e+00  9.149472e-01 
 -9.523810e-02  0.000000e+00  9.630528e-01 
 -4.761905e-02  0.000000e+00  9.908884e-01 
 0.000000e+00  0.000000e+00  1.000000e+00 
 4.761905e-02  0.000000e+00  9.908884e-01 
 9.523810e-02  0.000000e+00  9.630528e-01 
 1.428571e-01  0.000000e+00  9.149472e-01 
 1.904762e-01  0.000000e+00  8.438662e-01 
 2.380952e-01  0.000000e+00  7.458318e-01 
 2.857143e-01  0.000000e+00  6.157905e-01 
 3.333333e-01  0.000000e+00  4.493290e-01 
 3.809524e-01  0.000000e+00  2.506284e-01 
 4.285714e-01  0.000000e+00  6.271022e-02 
 4.761905e-01  0.000000e+00  5.794029e-05 
 -4.761905e-01  4.761905e-02  1.811231e-05 
 -4.285714e-01  4.761905e-02  5.487733e-02 
 -3.809524e-01  4.761905e-02  2.377670e-01 
 -3.333333e-01  4.761905e-02  4.361036e-01 
 -2.857143e-01  4.761905e-02  6.034335e-01 
 -2.380952e-01  4.761905e-02  7.344706e-01 
 -1.904762e-01  4.761905e-02  8.333466e-01 
 -1.428571e-01  4.761905e-02  9.050631e-01 
 -9.523810e-02  4.761905e-02  9.536048e-01 
 -4.761905e-02  4.761905e-02  9.816939e-01 
 0.000000e+00  4.761905e-02  9.908884e-01 
 4.761905e-02  4.761905e-02  9.816939e-01 
 9.523810e-02  4.761905e-02  9.536048e-01 
 1.428571e-01  4.761905e-02  9.050631e-01 
 1.904762e-01  4.761905e-02  8.333466e-01 
 2.380952e-01  4.761905e-02  7.344706e-01 
 2.857143e-01  4.761905e-02  6.034335e-01 
 3.333333e-01  4.761905e-02  4.361036e-01 
 3.809524e-01  4.761905e-02  2.377670e-01 
 4.285714e-01  4.761905e-02  5.487733e-02 
 4.761905e-01  4.761905e-02  1.811231e-05 
 -4.761905e-01  9.523810e-02  5.933895e-08 
 -4.285714e-01  9.523810e-02  3.451585e-02 
 -3.809524e-01  9.523810e-02  1.999941e-01 
 -3.333333e-01  9.523810e-02  3.962285e-01 
 -2.857143e-01  9.523810e-02  5.658677e-01 
 -2.380952e-01  9.523810e-02  6.998263e-01 
 -1.904762e-01  9.523810e-02  8.012305e-01 
 -1.428571e-01  9.523810e-02  8.748734e-01 
 -9.523810e-02  9.523810e-02  9.247428e-01 
 -4.761905e-02  9.523810e-02  9.536048e-01 
 0.000000e+00  9.523810e-02  9.630528e-01 
 4.761905e-02  9.523810e-02  9.536048e-01 
 9.523810e-02  9.523810e-02  9.247428e-01 
 1.428571e-01  9.523810e-02  8.748734e-01 
 1.904762e-01  9.523810e-02  8.012305e-01 
 2.380952e-01  9.523810e-02  6.998263e-01 
 2.857143e-01  9.523810e-02  5.658677e-01 
 3.333333e-01  9.523810e-02  3.962285e-01 
 3.809524e-01  9.523810e-02  1.999941e-01 
 4.285714e-01  9.523810e-02  3.451585e-02 
 4.761905e-01  9.523810e-02  5.933895e-08 
 -4.761905e-01  1.428571e-01  1.347476e-38 
 -4.285714e-01  1.428571e-01  1.174363e-02 
 -3.809524e-01  1.428571e-01  1.408962e-01 
 -3.333333e-01  1.428571e-01  3.295432e-01 
 -2.857143e-01  1.428571e-01  5.017491e-01 
 -2.380952e-01  1.428571e-01  6.402467e-01 
 -1.904762e-01  1.428571e-01  7.458318e-01 
 -1.428571e-01  1.428571e-01  8.227343e-01 
 -9.523810e-02  1.428571e-01  8.748734e-01 
 -4.761905e-02  1.428571e-01  9.050631e-01 
 0.000000e+00  1.428571e-01  9.149472e-01 
 4.761905e-02  1.428571e-01  9.050631e-01 
 9.523810e-02  1.428571e-01  8.748734e-01 
 1.428571e-01  1.428571e-01  8.227343e-01 
 1.904762e-01  1.428571e-01  7.458318e-01 
 2.380952e-01  1.428571e-01  6.402467e-01 
 2.857143e-01  1.428571e-01  5.017491e-01 
 3.333333e-01  1.428571e-01  3.295432e-01 
 3.809524e-01  1.428571e-01  1.408962e-01 
 4.285714e-01  1.428571e-01  1.174363e-02 
 4.761905e-01  1.428571e-01  1.347476e-38 
 -4.761905e-01  1.904762e-01  0.000000e+00 
 -4.285714e-01  1.904762e-01  6.616627e-04 
 -3.809524e-01  1.904762e-01  7.103177e-02 
 -3.333333e-01  1.904762e-01  2.377670e-01 
 -2.857143e-01  1.904762e-01  4.095469e-01 
 -2.380952e-01  1.904762e-01  5.531878e-01 
 -1.904762e-01  1.904762e-01  6.643503e-01 
 -1.428571e-01  1.904762e-01  7.458318e-01 
 -9.523810e-02  1.904762e-01  8.012305e-01 
 -4.761905e-02  1.904762e-01  8.333466e-01 
 0.000000e+00  1.904762e-01  8.438662e-01 
 4.761905e-02  1.904762e-01  8.333466e-01 
 9.523810e-02  1.904762e-01  8.012305e-01 
 1.428571e-01  1.904762e-01  7.458318e-01 
 1.904762e-01  1.904762e-01  6.643503e-01 
 2.380952e-01  1.904762e-01  5.531878e-01 
 2.857143e-01  1.904762e-01  4.095469e-01 
 3.333333e-01  1.904762e-01  2.377670e-01 
 3.809524e-01  1.904762e-01  7.103177e-02 
 4.285714e-01  1.904762e-01  6.616627e-04 
 4.761905e-01  1.904762e-01  0.000000e+00 
 -4.761905e-01  2.380952e-01  0.000000e+00 
 -4.285714e-01  2.380952e-01  1.472939e-11 
 -3.809524e-01  2.380952e-01  1.517304e-02 
 -3.333333e-01  2.380952e-01  1.298495e-01 
 -2.857143e-01  2.380952e-01  2.897958e-01 
 -2.380952e-01  2.380952e-01  4.361036e-01 
 -1.904762e-01  2.380952e-01  5.531878e-01 
 -1.428571e-01  2.380952e-01  6.402467e-01 
 -9.523810e-02  2.380952e-01  6.998263e-01 
 -4.761905e-02  2.380952e-01  7.344706e-01 
 0.000000e+00  2.380952e-01  7.458318e-01 
 4.761905e-02  2.380952e-01  7.344706e-01 
 9.523810e-02  2.380952e-01  6.998263e-01 
 1.428571e-01  2.380952e-01  6.402467e-01 
 1.904762e-01  2.380952e-01  5.531878e-01 
 2.380952e-01  2.380952e-01  4.361036e-01 
 2.857143e-01  2.380952e-01  2.897958e-01 
 3.333333e-01  2.380952e-01  1.298495e-01 
 3.809524e-01  2.380952e-01  1.517304e-02 
 4.285714e-01  2.380952e-01  1.472939e-11 
 4.761905e-01  2.380952e-01  0.000000e+00 
 -4.761905e-01  2.857143e-01  0.000000e+00 
 -4.285714e-01  2.857143e-01  0.000000e+00 
 -3.809524e-01  2.857143e-01  5.794029e-05 
 -3.333333e-01  2.857143e-01  3.451585e-02 
 -2.857143e-01  2.857143e-01  1.522315e-01 
 -2.380952e-01  2.857143e-01  2.897958e-01 
 -1.904762e-01  2.857143e-01  4.095469e-01 
 -1.428571e-01  2.857143e-01  5.017491e-01 
 -9.523810e-02  2.857143e-01  5.658677e-01 
 -4.761905e-02  2.857143e-01  6.034335e-01 
 0.000000e+00  2.857143e-01  6.157905e-01 
 4.761905e-02  2.857143e-01  6.034335e-01 
 9.523810e-02  2.857143e-01  5.658677e-01 
 1.428571e-01  2.857143e-01  5.017491e-01 
 1.904762e-01  2.857143e-01  4.095469e-01 
 2.380952e-01  2.857143e-01  2.897958e-01 
 2.857143e-01  2.857143e-01  1.522315e-01 
 3.333333e-01  2.857143e-01  3.451585e-02 
 3.809524e-01  2.857143e-01  5.794029e-05 
 4.285714e-01  2.857143e-01  0.000000e+00 
 4.761905e-01  2.857143e-01  0.000000e+00 
 -4.761905e-01  3.333333e-01  0.000000e+00 
 -4.285714e-01  3.333333e-01  0.000000e+00 
 -3.809524e-01  3.333333e-01  0.000000e+00 
 -3.333333e-01  3.333333e-01  3.354626e-04 
 -2.857143e-01  3.333333e-01  3.451585e-02 
 -2.380952e-01  3.333333e-01  1.298495e-01 
 -1.904762e-01  3.333333e-01  2.377670e-01 
 -1.428571e-01  3.333333e-01  3.295432e-01 
 -9.523810e-02  3.333333e-01  3.962285e-01 
 -4.761905e-02  3.333333e-01  4.361036e-01 
 0.000000e+00  3.333333e-01  4.493290e-01 
 4.761905e-02  3.333333e-01  4.361036e-01 
 9.523810e-02  3.333333e-01  3.962285e-01 
 1.428571e-01  3.333333e-01  3.295432e-01 
 1.904762e-01  3.333333e-01  2.377670e-01 
 2.380952e-01  3.333333e-01  1.298495e-01 
 2.857143e-01  3.333333e-01  3.451585e-02 
 3.333333e-01  3.333333e-01  3.354626e-04 
 3.809524e-01  3.333333e-01  0.000000e+00 
 4.285714e-01  3.333333e-01  0.000000e+00 
 4.761905e-01  3.333333e-01  0.000000e+00 
 -4.761905e-01  3.809524e-01  0.000000e+00 
 -4.285714e-01  3.809524e-01  0.000000e+00 
 -3.809524e-01  3.809524e-01  0.000000e+00 
 -3.333333e-01  3.809524e-01  0.000000e+00 
 -2.857143e-01  3.809524e-01  5.794029e-05 
 -2.380952e-01  3.809524e-01  1.517304e-02 
 -1.904762e-01  3.809524e-01  7.103177e-02 
 -1.428571e-01  3.809524e-01  1.408962e-01 
 -9.523810e-02  3.809524e-01  1.999941e-01 
 -4.761905e-02  3.809524e-01  2.377670e-01 
 0.000000e+00  3.809524e-01  2.506284e-01 
 4.761905e-02  3.809524e-01  2.377670e-01 
 9.523810e-02  3.809524e-01  1.999941e-01 
 1.428571e-01  3.809524e-01  1.408962e-01 
 1.904762e-01  3.809524e-01  7.103177e-02 
 2.380952e-01  3.809524e-01  1.517304e-02 
 2.857143e-01  3.809524e-01  5.794029e-05 
 3.333333e-01  3.809524e-01  0.000000e+00 
 3.809524e-01  3.809524e-01  0.000000e+00 
 4.285714e-01  3.809524e-01  0.000000e+00 
 4.761905e-01  3.809524e-01  0.000000e+00 
 -4.761905e-01  4.285714e-01  0.000000e+00 
 -4.285714e-01  4.285714e-01  0.000000e+00 
 -3.809524e-01  4.285714e-01  0.000000e+00 
 -3.333333e-01  4.285714e-01  0.000000e+00 
 -2.857143e-01  4.285714e-01  0.000000e+00 
 -2.380952e-01  4.285714e-01  1.472939e-11 
 -1.904762e-01  4.285714e-01  6.616627e-04 
 -1.428571e-01  4.285714e-01  1.174363e-02 
 -9.523810e-02  4.285714e-01  3.451585e-02 
 -4.761905e-02  4.285714e-01  5.487733e-02 
 0.000000e+00  4.285714e-01  6.271022e-02 
 4.761905e-02  4.285714e-01  5.487733e-02 
 9.523810e-02  4.285714e-01  3.451585e-02 
 1.428571e-01  4.285714e-01  1.174363e-02 
 1.904762e-01  4.285714e-01  6.616627e-04 
 2.380952e-01  4.285714e-01  1.472939e-11 
 2.857143e-01  4.285714e-01  0.000000e+00 
 3.333333e-01  4.285714e-01  0.000000e+00 
 3.809524e-01  4.285714e-01  0.000000e+00 
 4.285714e-01  4.285714e-01  0.000000e+00 
 4.761905e-01  4.285714e-01  0.000000e+00 
 -4.761905e-01  4.761905e-01  0.000000e+00 
 -4.285714e-01  4.761905e-01  0.000000e+00 
 -3.809524e-01  4.761905e-01  0.000000e+00 
 -3.333333e-01  4.761905e-01  0.000000e+00 
 -2.857143e-01  4.761905e-01  0.000000e+00 
 -2.380952e-01  4.761905e-01  0.000000e+00 
 -1.904762e-01  4.761905e-01  0.000000e+00 
 -1.428571e-01  4.761905e-01  1.347476e-38 
 -9.523810e-02  4.761905e-01  5.933895e-08 
 -4.761905e-02  4.761905e-01  1.811231e-05 
 0.000000e+00  4.761905e-01  5.794029e-05 
 4.761905e-02  4.761905e-01  1.811231e-05 
 9.523810e-02  4.761905e-01  5.933895e-08 
 1.428571e-01  4.761905e-01  1.347476e-38 
 1.904762e-01  4.761905e-01  0.000000e+00 
 2.380952e-01  4.761905e-01  0.000000e+00 
 2.857143e-01  4.761905e-01  0.000000e+00 
 3.333333e-01  4.761905e-01  0.000000e+00 
 3.809524e-01  4.761905e-01  0.000000e+00 
 4.285714e-01  4.761905e-01  0.000000e+00 
 4.761905e-01  4.761905e-01  0.000000e+00 
 