 TITLE = 'Scalar'
 VARIABLES = 'X', 'Y' , 'Scalar'   
ZONE T = "Scalar zone", I = 21 , J = 21 , F = POINT 
-4.761905e-01  -4.761905e-01  4.370538e-06 
 -4.285714e-01  -4.761905e-01  4.406991e-06 
 -3.809524e-01  -4.761905e-01  4.450792e-06 
 -3.333333e-01  -4.761905e-01  4.498050e-06 
 -2.857143e-01  -4.761905e-01  4.544565e-06 
 -2.380952e-01  -4.761905e-01  4.586205e-06 
 -1.904762e-01  -4.761905e-01  4.619269e-06 
 -1.428571e-01  -4.761905e-01  4.640821e-06 
 -9.523810e-02  -4.761905e-01  4.648944e-06 
 -4.761905e-02  -4.761905e-01  4.642918e-06 
 0.000000e+00  -4.761905e-01  4.623277e-06 
 4.761905e-02  -4.761905e-01  4.591766e-06 
 9.523810e-02  -4.761905e-01  4.551186e-06 
 1.428571e-01  -4.761905e-01  4.505141e-06 
 1.904762e-01  -4.761905e-01  4.457724e-06 
 2.380952e-01  -4.761905e-01  4.413148e-06 
 2.857143e-01  -4.761905e-01  4.375373e-06 
 3.333333e-01  -4.761905e-01  4.347756e-06 
 3.809524e-01  -4.761905e-01  4.332752e-06 
 4.285714e-01  -4.761905e-01  4.331693e-06 
 4.761905e-01  -4.761905e-01  4.344672e-06 
 -4.761905e-01  -4.285714e-01  1.237296e-02 
 -4.285714e-01  -4.285714e-01  1.246729e-02 
 -3.809524e-01  -4.285714e-01  1.258063e-02 
 -3.333333e-01  -4.285714e-01  1.270291e-02 
 -2.857143e-01  -4.285714e-01  1.282328e-02 
 -2.380952e-01  -4.285714e-01  1.293103e-02 
 -1.904762e-01  -4.285714e-01  1.301659e-02 
 -1.428571e-01  -4.285714e-01  1.307235e-02 
 -9.523810e-02  -4.285714e-01  1.309337e-02 
 -4.761905e-02  -4.285714e-01  1.307778e-02 
 0.000000e+00  -4.285714e-01  1.302696e-02 
 4.761905e-02  -4.285714e-01  1.294542e-02 
 9.523810e-02  -4.285714e-01  1.284041e-02 
 1.428571e-01  -4.285714e-01  1.272127e-02 
 1.904762e-01  -4.285714e-01  1.259857e-02 
 2.380952e-01  -4.285714e-01  1.248322e-02 
 2.857143e-01  -4.285714e-01  1.238547e-02 
 3.333333e-01  -4.285714e-01  1.231401e-02 
 3.809524e-01  -4.285714e-01  1.227519e-02 
 4.285714e-01  -4.285714e-01  1.227244e-02 
 4.761905e-01  -4.285714e-01  1.230603e-02 
 -4.761905e-01  -3.809524e-01  7.363310e-02 
 -4.285714e-01  -3.809524e-01  7.413093e-02 
 -3.809524e-01  -3.809524e-01  7.472912e-02 
 -3.333333e-01  -3.809524e-01  7.537451e-02 
 -2.857143e-01  -3.809524e-01  7.600977e-02 
 -2.380952e-01  -3.809524e-01  7.657844e-02 
 -1.904762e-01  -3.809524e-01  7.703000e-02 
 -1.428571e-01  -3.809524e-01  7.732433e-02 
 -9.523810e-02  -3.809524e-01  7.743527e-02 
 -4.761905e-02  -3.809524e-01  7.735296e-02 
 0.000000e+00  -3.809524e-01  7.708473e-02 
 4.761905e-02  -3.809524e-01  7.665439e-02 
 9.523810e-02  -3.809524e-01  7.610019e-02 
 1.428571e-01  -3.809524e-01  7.547136e-02 
 1.904762e-01  -3.809524e-01  7.482380e-02 
 2.380952e-01  -3.809524e-01  7.421503e-02 
 2.857143e-01  -3.809524e-01  7.369914e-02 
 3.333333e-01  -3.809524e-01  7.332199e-02 
 3.809524e-01  -3.809524e-01  7.311707e-02 
 4.285714e-01  -3.809524e-01  7.310260e-02 
 4.761905e-01  -3.809524e-01  7.327986e-02 
 -4.761905e-01  -3.333333e-01  1.671332e-01 
 -4.285714e-01  -3.333333e-01  1.681270e-01 
 -3.809524e-01  -3.333333e-01  1.693211e-01 
 -3.333333e-01  -3.333333e-01  1.706094e-01 
 -2.857143e-01  -3.333333e-01  1.718776e-01 
 -2.380952e-01  -3.333333e-01  1.730127e-01 
 -1.904762e-01  -3.333333e-01  1.739142e-01 
 -1.428571e-01  -3.333333e-01  1.745017e-01 
 -9.523810e-02  -3.333333e-01  1.747232e-01 
 -4.761905e-02  -3.333333e-01  1.745588e-01 
 0.000000e+00  -3.333333e-01  1.740234e-01 
 4.761905e-02  -3.333333e-01  1.731643e-01 
 9.523810e-02  -3.333333e-01  1.720580e-01 
 1.428571e-01  -3.333333e-01  1.708028e-01 
 1.904762e-01  -3.333333e-01  1.695101e-01 
 2.380952e-01  -3.333333e-01  1.682949e-01 
 2.857143e-01  -3.333333e-01  1.672651e-01 
 3.333333e-01  -3.333333e-01  1.665122e-01 
 3.809524e-01  -3.333333e-01  1.661031e-01 
 4.285714e-01  -3.333333e-01  1.660742e-01 
 4.761905e-01  -3.333333e-01  1.664281e-01 
 -4.761905e-01  -2.857143e-01  2.682748e-01 
 -4.285714e-01  -2.857143e-01  2.696794e-01 
 -3.809524e-01  -2.857143e-01  2.713671e-01 
 -3.333333e-01  -2.857143e-01  2.731880e-01 
 -2.857143e-01  -2.857143e-01  2.749803e-01 
 -2.380952e-01  -2.857143e-01  2.765847e-01 
 -1.904762e-01  -2.857143e-01  2.778587e-01 
 -1.428571e-01  -2.857143e-01  2.786891e-01 
 -9.523810e-02  -2.857143e-01  2.790021e-01 
 -4.761905e-02  -2.857143e-01  2.787698e-01 
 0.000000e+00  -2.857143e-01  2.780130e-01 
 4.761905e-02  -2.857143e-01  2.767989e-01 
 9.523810e-02  -2.857143e-01  2.752353e-01 
 1.428571e-01  -2.857143e-01  2.734612e-01 
 1.904762e-01  -2.857143e-01  2.716342e-01 
 2.380952e-01  -2.857143e-01  2.699167e-01 
 2.857143e-01  -2.857143e-01  2.684612e-01 
 3.333333e-01  -2.857143e-01  2.673971e-01 
 3.809524e-01  -2.857143e-01  2.668190e-01 
 4.285714e-01  -2.857143e-01  2.667781e-01 
 4.761905e-01  -2.857143e-01  2.672782e-01 
 -4.761905e-01  -2.380952e-01  3.632003e-01 
 -4.285714e-01  -2.380952e-01  3.648892e-01 
 -3.809524e-01  -2.380952e-01  3.669185e-01 
 -3.333333e-01  -2.380952e-01  3.691080e-01 
 -2.857143e-01  -2.380952e-01  3.712631e-01 
 -2.380952e-01  -2.380952e-01  3.731923e-01 
 -1.904762e-01  -2.380952e-01  3.747241e-01 
 -1.428571e-01  -2.380952e-01  3.757226e-01 
 -9.523810e-02  -2.380952e-01  3.760990e-01 
 -4.761905e-02  -2.380952e-01  3.758197e-01 
 0.000000e+00  -2.380952e-01  3.749097e-01 
 4.761905e-02  -2.380952e-01  3.734498e-01 
 9.523810e-02  -2.380952e-01  3.715697e-01 
 1.428571e-01  -2.380952e-01  3.694365e-01 
 1.904762e-01  -2.380952e-01  3.672397e-01 
 2.380952e-01  -2.380952e-01  3.651745e-01 
 2.857143e-01  -2.380952e-01  3.634244e-01 
 3.333333e-01  -2.380952e-01  3.621449e-01 
 3.809524e-01  -2.380952e-01  3.614498e-01 
 4.285714e-01  -2.380952e-01  3.614006e-01 
 4.761905e-01  -2.380952e-01  3.620020e-01 
 -4.761905e-01  -1.904762e-01  4.452353e-01 
 -4.285714e-01  -1.904762e-01  4.470976e-01 
 -3.809524e-01  -1.904762e-01  4.493352e-01 
 -3.333333e-01  -1.904762e-01  4.517494e-01 
 -2.857143e-01  -1.904762e-01  4.541258e-01 
 -2.380952e-01  -1.904762e-01  4.562530e-01 
 -1.904762e-01  -1.904762e-01  4.579421e-01 
 -1.428571e-01  -1.904762e-01  4.590431e-01 
 -9.523810e-02  -1.904762e-01  4.594581e-01 
 -4.761905e-02  -1.904762e-01  4.591502e-01 
 0.000000e+00  -1.904762e-01  4.581468e-01 
 4.761905e-02  -1.904762e-01  4.565370e-01 
 9.523810e-02  -1.904762e-01  4.544639e-01 
 1.428571e-01  -1.904762e-01  4.521117e-01 
 1.904762e-01  -1.904762e-01  4.496894e-01 
 2.380952e-01  -1.904762e-01  4.474122e-01 
 2.857143e-01  -1.904762e-01  4.454824e-01 
 3.333333e-01  -1.904762e-01  4.440716e-01 
 3.809524e-01  -1.904762e-01  4.433051e-01 
 4.285714e-01  -1.904762e-01  4.432509e-01 
 4.761905e-01  -1.904762e-01  4.439140e-01 
 -4.761905e-01  -1.428571e-01  5.107577e-01 
 -4.285714e-01  -1.428571e-01  5.127156e-01 
 -3.809524e-01  -1.428571e-01  5.150682e-01 
 -3.333333e-01  -1.428571e-01  5.176064e-01 
 -2.857143e-01  -1.428571e-01  5.201047e-01 
 -2.380952e-01  -1.428571e-01  5.223412e-01 
 -1.904762e-01  -1.428571e-01  5.241171e-01 
 -1.428571e-01  -1.428571e-01  5.252746e-01 
 -9.523810e-02  -1.428571e-01  5.257109e-01 
 -4.761905e-02  -1.428571e-01  5.253872e-01 
 0.000000e+00  -1.428571e-01  5.243322e-01 
 4.761905e-02  -1.428571e-01  5.226398e-01 
 9.523810e-02  -1.428571e-01  5.204603e-01 
 1.428571e-01  -1.428571e-01  5.179873e-01 
 1.904762e-01  -1.428571e-01  5.154405e-01 
 2.380952e-01  -1.428571e-01  5.130464e-01 
 2.857143e-01  -1.428571e-01  5.110175e-01 
 3.333333e-01  -1.428571e-01  5.095343e-01 
 3.809524e-01  -1.428571e-01  5.087284e-01 
 4.285714e-01  -1.428571e-01  5.086714e-01 
 4.761905e-01  -1.428571e-01  5.093685e-01 
 -4.761905e-01  -9.523810e-02  5.584440e-01 
 -4.285714e-01  -9.523810e-02  5.604470e-01 
 -3.809524e-01  -9.523810e-02  5.628538e-01 
 -3.333333e-01  -9.523810e-02  5.654506e-01 
 -2.857143e-01  -9.523810e-02  5.680065e-01 
 -2.380952e-01  -9.523810e-02  5.702946e-01 
 -1.904762e-01  -9.523810e-02  5.721115e-01 
 -1.428571e-01  -9.523810e-02  5.732957e-01 
 -9.523810e-02  -9.523810e-02  5.737420e-01 
 -4.761905e-02  -9.523810e-02  5.734108e-01 
 0.000000e+00  -9.523810e-02  5.723316e-01 
 4.761905e-02  -9.523810e-02  5.706001e-01 
 9.523810e-02  -9.523810e-02  5.683703e-01 
 1.428571e-01  -9.523810e-02  5.658402e-01 
 1.904762e-01  -9.523810e-02  5.632348e-01 
 2.380952e-01  -9.523810e-02  5.607854e-01 
 2.857143e-01  -9.523810e-02  5.587098e-01 
 3.333333e-01  -9.523810e-02  5.571923e-01 
 3.809524e-01  -9.523810e-02  5.563678e-01 
 4.285714e-01  -9.523810e-02  5.563095e-01 
 4.761905e-01  -9.523810e-02  5.570227e-01 
 -4.761905e-01  -4.761905e-02  5.872802e-01 
 -4.285714e-01  -4.761905e-02  5.893016e-01 
 -3.809524e-01  -4.761905e-02  5.917306e-01 
 -3.333333e-01  -4.761905e-02  5.943512e-01 
 -2.857143e-01  -4.761905e-02  5.969307e-01 
 -2.380952e-01  -4.761905e-02  5.992398e-01 
 -1.904762e-01  -4.761905e-02  6.010733e-01 
 -1.428571e-01  -4.761905e-02  6.022684e-01 
 -9.523810e-02  -4.761905e-02  6.027189e-01 
 -4.761905e-02  -4.761905e-02  6.023847e-01 
 0.000000e+00  -4.761905e-02  6.012955e-01 
 4.761905e-02  -4.761905e-02  5.995481e-01 
 9.523810e-02  -4.761905e-02  5.972977e-01 
 1.428571e-01  -4.761905e-02  5.947444e-01 
 1.904762e-01  -4.761905e-02  5.921150e-01 
 2.380952e-01  -4.761905e-02  5.896431e-01 
 2.857143e-01  -4.761905e-02  5.875484e-01 
 3.333333e-01  -4.761905e-02  5.860170e-01 
 3.809524e-01  -4.761905e-02  5.851849e-01 
 4.285714e-01  -4.761905e-02  5.851261e-01 
 4.761905e-01  -4.761905e-02  5.858459e-01 
 -4.761905e-01  0.000000e+00  5.969101e-01 
 -4.285714e-01  0.000000e+00  5.989364e-01 
 -3.809524e-01  0.000000e+00  6.013711e-01 
 -3.333333e-01  0.000000e+00  6.039980e-01 
 -2.857143e-01  0.000000e+00  6.065836e-01 
 -2.380952e-01  0.000000e+00  6.088982e-01 
 -1.904762e-01  0.000000e+00  6.107361e-01 
 -1.428571e-01  0.000000e+00  6.119341e-01 
 -9.523810e-02  0.000000e+00  6.123856e-01 
 -4.761905e-02  0.000000e+00  6.120506e-01 
 0.000000e+00  0.000000e+00  6.109588e-01 
 4.761905e-02  0.000000e+00  6.092072e-01 
 9.523810e-02  0.000000e+00  6.069516e-01 
 1.428571e-01  0.000000e+00  6.043922e-01 
 1.904762e-01  0.000000e+00  6.017565e-01 
 2.380952e-01  0.000000e+00  5.992787e-01 
 2.857143e-01  0.000000e+00  5.971790e-01 
 3.333333e-01  0.000000e+00  5.956440e-01 
 3.809524e-01  0.000000e+00  5.948099e-01 
 4.285714e-01  0.000000e+00  5.947510e-01 
 4.761905e-01  0.000000e+00  5.954724e-01 
 -4.761905e-01  4.761905e-02  5.872802e-01 
 -4.285714e-01  4.761905e-02  5.893016e-01 
 -3.809524e-01  4.761905e-02  5.917306e-01 
 -3.333333e-01  4.761905e-02  5.943512e-01 
 -2.857143e-01  4.761905e-02  5.969307e-01 
 -2.380952e-01  4.761905e-02  5.992398e-01 
 -1.904762e-01  4.761905e-02  6.010733e-01 
 -1.428571e-01  4.761905e-02  6.022684e-01 
 -9.523810e-02  4.761905e-02  6.027189e-01 
 -4.761905e-02  4.761905e-02  6.023847e-01 
 0.000000e+00  4.761905e-02  6.012955e-01 
 4.761905e-02  4.761905e-02  5.995481e-01 
 9.523810e-02  4.761905e-02  5.972977e-01 
 1.428571e-01  4.761905e-02  5.947444e-01 
 1.904762e-01  4.761905e-02  5.921150e-01 
 2.380952e-01  4.761905e-02  5.896431e-01 
 2.857143e-01  4.761905e-02  5.875484e-01 
 3.333333e-01  4.761905e-02  5.860170e-01 
 3.809524e-01  4.761905e-02  5.851849e-01 
 4.285714e-01  4.761905e-02  5.851261e-01 
 4.761905e-01  4.761905e-02  5.858459e-01 
 -4.761905e-01  9.523810e-02  5.584440e-01 
 -4.285714e-01  9.523810e-02  5.604470e-01 
 -3.809524e-01  9.523810e-02  5.628538e-01 
 -3.333333e-01  9.523810e-02  5.654506e-01 
 -2.857143e-01  9.523810e-02  5.680065e-01 
 -2.380952e-01  9.523810e-02  5.702946e-01 
 -1.904762e-01  9.523810e-02  5.721115e-01 
 -1.428571e-01  9.523810e-02  5.732957e-01 
 -9.523810e-02  9.523810e-02  5.737420e-01 
 -4.761905e-02  9.523810e-02  5.734108e-01 
 0.000000e+00  9.523810e-02  5.723316e-01 
 4.761905e-02  9.523810e-02  5.706001e-01 
 9.523810e-02  9.523810e-02  5.683703e-01 
 1.428571e-01  9.523810e-02  5.658402e-01 
 1.904762e-01  9.523810e-02  5.632348e-01 
 2.380952e-01  9.523810e-02  5.607854e-01 
 2.857143e-01  9.523810e-02  5.587098e-01 
 3.333333e-01  9.523810e-02  5.571923e-01 
 3.809524e-01  9.523810e-02  5.563678e-01 
 4.285714e-01  9.523810e-02  5.563095e-01 
 4.761905e-01  9.523810e-02  5.570227e-01 
 -4.761905e-01  1.428571e-01  5.107577e-01 
 -4.285714e-01  1.428571e-01  5.127156e-01 
 -3.809524e-01  1.428571e-01  5.150682e-01 
 -3.333333e-01  1.428571e-01  5.176064e-01 
 -2.857143e-01  1.428571e-01  5.201047e-01 
 -2.380952e-01  1.428571e-01  5.223412e-01 
 -1.904762e-01  1.428571e-01  5.241171e-01 
 -1.428571e-01  1.428571e-01  5.252746e-01 
 -9.523810e-02  1.428571e-01  5.257109e-01 
 -4.761905e-02  1.428571e-01  5.253872e-01 
 0.000000e+00  1.428571e-01  5.243322e-01 
 4.761905e-02  1.428571e-01  5.226398e-01 
 9.523810e-02  1.428571e-01  5.204603e-01 
 1.428571e-01  1.428571e-01  5.179873e-01 
 1.904762e-01  1.428571e-01  5.154405e-01 
 2.380952e-01  1.428571e-01  5.130464e-01 
 2.857143e-01  1.428571e-01  5.110175e-01 
 3.333333e-01  1.428571e-01  5.095343e-01 
 3.809524e-01  1.428571e-01  5.087284e-01 
 4.285714e-01  1.428571e-01  5.086714e-01 
 4.761905e-01  1.428571e-01  5.093685e-01 
 -4.761905e-01  1.904762e-01  4.452353e-01 
 -4.285714e-01  1.904762e-01  4.470976e-01 
 -3.809524e-01  1.904762e-01  4.493352e-01 
 -3.333333e-01  1.904762e-01  4.517494e-01 
 -2.857143e-01  1.904762e-01  4.541258e-01 
 -2.380952e-01  1.904762e-01  4.562530e-01 
 -1.904762e-01  1.904762e-01  4.579421e-01 
 -1.428571e-01  1.904762e-01  4.590431e-01 
 -9.523810e-02  1.904762e-01  4.594581e-01 
 -4.761905e-02  1.904762e-01  4.591502e-01 
 0.000000e+00  1.904762e-01  4.581468e-01 
 4.761905e-02  1.904762e-01  4.565370e-01 
 9.523810e-02  1.904762e-01  4.544639e-01 
 1.428571e-01  1.904762e-01  4.521117e-01 
 1.904762e-01  1.904762e-01  4.496894e-01 
 2.380952e-01  1.904762e-01  4.474122e-01 
 2.857143e-01  1.904762e-01  4.454824e-01 
 3.333333e-01  1.904762e-01  4.440716e-01 
 3.809524e-01  1.904762e-01  4.433051e-01 
 4.285714e-01  1.904762e-01  4.432509e-01 
 4.761905e-01  1.904762e-01  4.439140e-01 
 -4.761905e-01  2.380952e-01  3.632003e-01 
 -4.285714e-01  2.380952e-01  3.648892e-01 
 -3.809524e-01  2.380952e-01  3.669185e-01 
 -3.333333e-01  2.380952e-01  3.691080e-01 
 -2.857143e-01  2.380952e-01  3.712631e-01 
 -2.380952e-01  2.380952e-01  3.731923e-01 
 -1.904762e-01  2.380952e-01  3.747241e-01 
 -1.428571e-01  2.380952e-01  3.757226e-01 
 -9.523810e-02  2.380952e-01  3.760990e-01 
 -4.761905e-02  2.380952e-01  3.758197e-01 
 0.000000e+00  2.380952e-01  3.749097e-01 
 4.761905e-02  2.380952e-01  3.734498e-01 
 9.523810e-02  2.380952e-01  3.715697e-01 
 1.428571e-01  2.380952e-01  3.694365e-01 
 1.904762e-01  2.380952e-01  3.672397e-01 
 2.380952e-01  2.380952e-01  3.651745e-01 
 2.857143e-01  2.380952e-01  3.634244e-01 
 3.333333e-01  2.380952e-01  3.621449e-01 
 3.809524e-01  2.380952e-01  3.614498e-01 
 4.285714e-01  2.380952e-01  3.614006e-01 
 4.761905e-01  2.380952e-01  3.620020e-01 
 -4.761905e-01  2.857143e-01  2.682748e-01 
 -4.285714e-01  2.857143e-01  2.696794e-01 
 -3.809524e-01  2.857143e-01  2.713671e-01 
 -3.333333e-01  2.857143e-01  2.731880e-01 
 -2.857143e-01  2.857143e-01  2.749803e-01 
 -2.380952e-01  2.857143e-01  2.765847e-01 
 -1.904762e-01  2.857143e-01  2.778587e-01 
 -1.428571e-01  2.857143e-01  2.786891e-01 
 -9.523810e-02  2.857143e-01  2.790021e-01 
 -4.761905e-02  2.857143e-01  2.787698e-01 
 0.000000e+00  2.857143e-01  2.780130e-01 
 4.761905e-02  2.857143e-01  2.767989e-01 
 9.523810e-02  2.857143e-01  2.752353e-01 
 1.428571e-01  2.857143e-01  2.734612e-01 
 1.904762e-01  2.857143e-01  2.716342e-01 
 2.380952e-01  2.857143e-01  2.699167e-01 
 2.857143e-01  2.857143e-01  2.684612e-01 
 3.333333e-01  2.857143e-01  2.673971e-01 
 3.809524e-01  2.857143e-01  2.668190e-01 
 4.285714e-01  2.857143e-01  2.667781e-01 
 4.761905e-01  2.857143e-01  2.672782e-01 
 -4.761905e-01  3.333333e-01  1.671332e-01 
 -4.285714e-01  3.333333e-01  1.681270e-01 
 -3.809524e-01  3.333333e-01  1.693211e-01 
 -3.333333e-01  3.333333e-01  1.706094e-01 
 -2.857143e-01  3.333333e-01  1.718776e-01 
 -2.380952e-01  3.333333e-01  1.730127e-01 
 -1.904762e-01  3.333333e-01  1.739142e-01 
 -1.428571e-01  3.333333e-01  1.745017e-01 
 -9.523810e-02  3.333333e-01  1.747232e-01 
 -4.761905e-02  3.333333e-01  1.745588e-01 
 0.000000e+00  3.333333e-01  1.740234e-01 
 4.761905e-02  3.333333e-01  1.731643e-01 
 9.523810e-02  3.333333e-01  1.720580e-01 
 1.428571e-01  3.333333e-01  1.708028e-01 
 1.904762e-01  3.333333e-01  1.695101e-01 
 2.380952e-01  3.333333e-01  1.682949e-01 
 2.857143e-01  3.333333e-01  1.672651e-01 
 3.333333e-01  3.333333e-01  1.665122e-01 
 3.809524e-01  3.333333e-01  1.661031e-01 
 4.285714e-01  3.333333e-01  1.660742e-01 
 4.761905e-01  3.333333e-01  1.664281e-01 
 -4.761905e-01  3.809524e-01  7.363310e-02 
 -4.285714e-01  3.809524e-01  7.413093e-02 
 -3.809524e-01  3.809524e-01  7.472912e-02 
 -3.333333e-01  3.809524e-01  7.537451e-02 
 -2.857143e-01  3.809524e-01  7.600977e-02 
 -2.380952e-01  3.809524e-01  7.657844e-02 
 -1.904762e-01  3.809524e-01  7.703000e-02 
 -1.428571e-01  3.809524e-01  7.732433e-02 
 -9.523810e-02  3.809524e-01  7.743527e-02 
 -4.761905e-02  3.809524e-01  7.735296e-02 
 0.000000e+00  3.809524e-01  7.708473e-02 
 4.761905e-02  3.809524e-01  7.665439e-02 
 9.523810e-02  3.809524e-01  7.610019e-02 
 1.428571e-01  3.809524e-01  7.547136e-02 
 1.904762e-01  3.809524e-01  7.482380e-02 
 2.380952e-01  3.809524e-01  7.421503e-02 
 2.857143e-01  3.809524e-01  7.369914e-02 
 3.333333e-01  3.809524e-01  7.332199e-02 
 3.809524e-01  3.809524e-01  7.311707e-02 
 4.285714e-01  3.809524e-01  7.310260e-02 
 4.761905e-01  3.809524e-01  7.327986e-02 
 -4.761905e-01  4.285714e-01  1.237296e-02 
 -4.285714e-01  4.285714e-01  1.246729e-02 
 -3.809524e-01  4.285714e-01  1.258063e-02 
 -3.333333e-01  4.285714e-01  1.270291e-02 
 -2.857143e-01  4.285714e-01  1.282328e-02 
 -2.380952e-01  4.285714e-01  1.293103e-02 
 -1.904762e-01  4.285714e-01  1.301659e-02 
 -1.428571e-01  4.285714e-01  1.307235e-02 
 -9.523810e-02  4.285714e-01  1.309337e-02 
 -4.761905e-02  4.285714e-01  1.307778e-02 
 0.000000e+00  4.285714e-01  1.302696e-02 
 4.761905e-02  4.285714e-01  1.294542e-02 
 9.523810e-02  4.285714e-01  1.284041e-02 
 1.428571e-01  4.285714e-01  1.272127e-02 
 1.904762e-01  4.285714e-01  1.259857e-02 
 2.380952e-01  4.285714e-01  1.248322e-02 
 2.857143e-01  4.285714e-01  1.238547e-02 
 3.333333e-01  4.285714e-01  1.231401e-02 
 3.809524e-01  4.285714e-01  1.227519e-02 
 4.285714e-01  4.285714e-01  1.227244e-02 
 4.761905e-01  4.285714e-01  1.230603e-02 
 -4.761905e-01  4.761905e-01  4.370538e-06 
 -4.285714e-01  4.761905e-01  4.406991e-06 
 -3.809524e-01  4.761905e-01  4.450792e-06 
 -3.333333e-01  4.761905e-01  4.498050e-06 
 -2.857143e-01  4.761905e-01  4.544565e-06 
 -2.380952e-01  4.761905e-01  4.586205e-06 
 -1.904762e-01  4.761905e-01  4.619269e-06 
 -1.428571e-01  4.761905e-01  4.640821e-06 
 -9.523810e-02  4.761905e-01  4.648944e-06 
 -4.761905e-02  4.761905e-01  4.642918e-06 
 0.000000e+00  4.761905e-01  4.623277e-06 
 4.761905e-02  4.761905e-01  4.591766e-06 
 9.523810e-02  4.761905e-01  4.551186e-06 
 1.428571e-01  4.761905e-01  4.505141e-06 
 1.904762e-01  4.761905e-01  4.457724e-06 
 2.380952e-01  4.761905e-01  4.413148e-06 
 2.857143e-01  4.761905e-01  4.375373e-06 
 3.333333e-01  4.761905e-01  4.347756e-06 
 3.809524e-01  4.761905e-01  4.332752e-06 
 4.285714e-01  4.761905e-01  4.331693e-06 
 4.761905e-01  4.761905e-01  4.344672e-06 
 